s 0.000000000 _1_ AGT  --- 0 cbr 1000 [0 0 0 0] ------- [1:0 0:0 32 0] [0] 0 0
r 0.000000000 _1_ RTR  --- 0 cbr 1000 [0 0 0 0] ------- [1:0 0:0 32 0] [0] 0 0
s 0.000000000 _0_ RTR  --- 0 XFXVanets 48 [0 0 0 0] ------- [0:255 -1:255 1 0] 
s 0.000000000 _1_ RTR  --- 0 XFXVanets 48 [0 0 0 0] ------- [1:255 -1:255 1 0] 
s 0.000000000 _1_ RTR  --- 0 XFXVanets 48 [0 0 0 0] ------- [1:255 0:255 1 0] 
r 0.000988000 _1_ RTR  --- 0 XFXVanets 48 [0 ffffffff 0 800] ------- [0:255 -1:255 1 0] 
r 0.005052000 _0_ RTR  --- 0 XFXVanets 48 [0 ffffffff 1 800] ------- [1:255 -1:255 1 0] 
r 0.006626000 _0_ RTR  --- 0 XFXVanets 48 [13a 0 1 800] ------- [1:255 0:255 1 0] 
M 1.00000 1 (5.00, 5.00, 0.00), (5.00, 5.00), 0.00
s 1.000000000 _1_ AGT  --- 1 cbr 1000 [0 0 0 0] ------- [1:0 0:0 32 0] [1] 0 0
r 1.000000000 _1_ RTR  --- 1 cbr 1000 [0 0 0 0] ------- [1:0 0:0 32 0] [1] 0 0
s 1.000000000 _0_ RTR  --- 0 XFXVanets 48 [0 0 0 0] ------- [0:255 -1:255 1 0] 
s 1.000000000 _1_ RTR  --- 0 XFXVanets 48 [0 0 0 0] ------- [1:255 -1:255 1 0] 
s 1.000000000 _1_ RTR  --- 0 XFXVanets 48 [0 0 0 0] ------- [1:255 0:255 1 0] 
r 1.001148000 _1_ RTR  --- 0 XFXVanets 48 [0 ffffffff 0 800] ------- [0:255 -1:255 1 0] 
r 1.002086000 _0_ RTR  --- 0 XFXVanets 48 [0 ffffffff 1 800] ------- [1:255 -1:255 1 0] 
r 1.003920000 _0_ RTR  --- 0 XFXVanets 48 [13a 0 1 800] ------- [1:255 0:255 1 0] 
s 2.000000000 _1_ AGT  --- 2 cbr 1000 [0 0 0 0] ------- [1:0 0:0 32 0] [2] 0 0
r 2.000000000 _1_ RTR  --- 2 cbr 1000 [0 0 0 0] ------- [1:0 0:0 32 0] [2] 0 0
s 2.000000000 _0_ RTR  --- 0 XFXVanets 48 [0 0 0 0] ------- [0:255 -1:255 1 0] 
s 2.000000000 _1_ RTR  --- 0 XFXVanets 48 [0 0 0 0] ------- [1:255 -1:255 1 0] 
s 2.000000000 _1_ RTR  --- 0 XFXVanets 48 [0 0 0 0] ------- [1:255 0:255 1 0] 
r 2.000988000 _1_ RTR  --- 0 XFXVanets 48 [0 ffffffff 0 800] ------- [0:255 -1:255 1 0] 
r 2.002386000 _0_ RTR  --- 0 XFXVanets 48 [0 ffffffff 1 800] ------- [1:255 -1:255 1 0] 
r 2.004320000 _0_ RTR  --- 0 XFXVanets 48 [13a 0 1 800] ------- [1:255 0:255 1 0] 
s 3.000000000 _1_ AGT  --- 3 cbr 1000 [0 0 0 0] ------- [1:0 0:0 32 0] [3] 0 0
r 3.000000000 _1_ RTR  --- 3 cbr 1000 [0 0 0 0] ------- [1:0 0:0 32 0] [3] 0 0
s 3.000000000 _0_ RTR  --- 0 XFXVanets 48 [0 0 0 0] ------- [0:255 -1:255 1 0] 
s 3.000000000 _1_ RTR  --- 0 XFXVanets 48 [0 0 0 0] ------- [1:255 -1:255 1 0] 
s 3.000000000 _1_ RTR  --- 0 XFXVanets 48 [0 0 0 0] ------- [1:255 0:255 1 0] 
r 3.001108000 _1_ RTR  --- 0 XFXVanets 48 [0 ffffffff 0 800] ------- [0:255 -1:255 1 0] 
r 3.002326000 _0_ RTR  --- 0 XFXVanets 48 [0 ffffffff 1 800] ------- [1:255 -1:255 1 0] 
r 3.004220000 _0_ RTR  --- 0 XFXVanets 48 [13a 0 1 800] ------- [1:255 0:255 1 0] 
s 4.000000000 _1_ AGT  --- 4 cbr 1000 [0 0 0 0] ------- [1:0 0:0 32 0] [4] 0 0
r 4.000000000 _1_ RTR  --- 4 cbr 1000 [0 0 0 0] ------- [1:0 0:0 32 0] [4] 0 0
s 4.000000000 _0_ RTR  --- 0 XFXVanets 48 [0 0 0 0] ------- [0:255 -1:255 1 0] 
s 4.000000000 _1_ RTR  --- 0 XFXVanets 48 [0 0 0 0] ------- [1:255 -1:255 1 0] 
s 4.000000000 _1_ RTR  --- 0 XFXVanets 48 [0 0 0 0] ------- [1:255 0:255 1 0] 
r 4.000968000 _0_ RTR  --- 0 XFXVanets 48 [0 ffffffff 1 800] ------- [1:255 -1:255 1 0] 
r 4.002066000 _1_ RTR  --- 0 XFXVanets 48 [0 ffffffff 0 800] ------- [0:255 -1:255 1 0] 
r 4.003680000 _0_ RTR  --- 0 XFXVanets 48 [13a 0 1 800] ------- [1:255 0:255 1 0] 
s 5.000000000 _1_ AGT  --- 5 cbr 1000 [0 0 0 0] ------- [1:0 0:0 32 0] [5] 0 0
r 5.000000000 _1_ RTR  --- 5 cbr 1000 [0 0 0 0] ------- [1:0 0:0 32 0] [5] 0 0
s 5.000000000 _0_ RTR  --- 0 XFXVanets 48 [0 0 0 0] ------- [0:255 -1:255 1 0] 
s 5.000000000 _1_ RTR  --- 0 XFXVanets 48 [0 0 0 0] ------- [1:255 -1:255 1 0] 
s 5.000000000 _1_ RTR  --- 0 XFXVanets 48 [0 0 0 0] ------- [1:255 0:255 1 0] 
r 5.001348000 _0_ RTR  --- 0 XFXVanets 48 [0 ffffffff 1 800] ------- [1:255 -1:255 1 0] 
r 5.002446000 _1_ RTR  --- 0 XFXVanets 48 [0 ffffffff 0 800] ------- [0:255 -1:255 1 0] 
r 5.004360000 _0_ RTR  --- 0 XFXVanets 48 [13a 0 1 800] ------- [1:255 0:255 1 0] 
s 6.000000000 _1_ AGT  --- 6 cbr 1000 [0 0 0 0] ------- [1:0 0:0 32 0] [6] 0 0
r 6.000000000 _1_ RTR  --- 6 cbr 1000 [0 0 0 0] ------- [1:0 0:0 32 0] [6] 0 0
s 6.000000000 _0_ RTR  --- 0 XFXVanets 48 [0 0 0 0] ------- [0:255 -1:255 1 0] 
s 6.000000000 _1_ RTR  --- 0 XFXVanets 48 [0 0 0 0] ------- [1:255 -1:255 1 0] 
s 6.000000000 _1_ RTR  --- 0 XFXVanets 48 [0 0 0 0] ------- [1:255 0:255 1 0] 
r 6.001248000 _1_ RTR  --- 0 XFXVanets 48 [0 ffffffff 0 800] ------- [0:255 -1:255 1 0] 
r 6.002206000 _0_ RTR  --- 0 XFXVanets 48 [0 ffffffff 1 800] ------- [1:255 -1:255 1 0] 
r 6.003860000 _0_ RTR  --- 0 XFXVanets 48 [13a 0 1 800] ------- [1:255 0:255 1 0] 
s 7.000000000 _1_ AGT  --- 7 cbr 1000 [0 0 0 0] ------- [1:0 0:0 32 0] [7] 0 0
r 7.000000000 _1_ RTR  --- 7 cbr 1000 [0 0 0 0] ------- [1:0 0:0 32 0] [7] 0 0
s 7.000000000 _0_ RTR  --- 0 XFXVanets 48 [0 0 0 0] ------- [0:255 -1:255 1 0] 
s 7.000000000 _1_ RTR  --- 0 XFXVanets 48 [0 0 0 0] ------- [1:255 -1:255 1 0] 
s 7.000000000 _1_ RTR  --- 0 XFXVanets 48 [0 0 0 0] ------- [1:255 0:255 1 0] 
r 7.001048000 _0_ RTR  --- 0 XFXVanets 48 [0 ffffffff 1 800] ------- [1:255 -1:255 1 0] 
r 7.002046000 _1_ RTR  --- 0 XFXVanets 48 [0 ffffffff 0 800] ------- [0:255 -1:255 1 0] 
r 7.004040000 _0_ RTR  --- 0 XFXVanets 48 [13a 0 1 800] ------- [1:255 0:255 1 0] 
s 8.000000000 _1_ AGT  --- 8 cbr 1000 [0 0 0 0] ------- [1:0 0:0 32 0] [8] 0 0
r 8.000000000 _1_ RTR  --- 8 cbr 1000 [0 0 0 0] ------- [1:0 0:0 32 0] [8] 0 0
s 8.000000000 _0_ RTR  --- 0 XFXVanets 48 [0 0 0 0] ------- [0:255 -1:255 1 0] 
s 8.000000000 _1_ RTR  --- 0 XFXVanets 48 [0 0 0 0] ------- [1:255 -1:255 1 0] 
s 8.000000000 _1_ RTR  --- 0 XFXVanets 48 [0 0 0 0] ------- [1:255 0:255 1 0] 
r 8.001008000 _0_ RTR  --- 0 XFXVanets 48 [0 ffffffff 1 800] ------- [1:255 -1:255 1 0] 
r 8.002702000 _0_ RTR  --- 0 XFXVanets 48 [13a 0 1 800] ------- [1:255 0:255 1 0] 
r 8.004334000 _1_ RTR  --- 0 XFXVanets 48 [0 ffffffff 0 800] ------- [0:255 -1:255 1 0] 
s 9.000000000 _1_ AGT  --- 9 cbr 1000 [0 0 0 0] ------- [1:0 0:0 32 0] [9] 0 0
r 9.000000000 _1_ RTR  --- 9 cbr 1000 [0 0 0 0] ------- [1:0 0:0 32 0] [9] 0 0
s 9.000000000 _0_ RTR  --- 0 XFXVanets 48 [0 0 0 0] ------- [0:255 -1:255 1 0] 
s 9.000000000 _1_ RTR  --- 0 XFXVanets 48 [0 0 0 0] ------- [1:255 -1:255 1 0] 
s 9.000000000 _1_ RTR  --- 0 XFXVanets 48 [0 0 0 0] ------- [1:255 0:255 1 0] 
r 9.001128000 _0_ RTR  --- 0 XFXVanets 48 [0 ffffffff 1 800] ------- [1:255 -1:255 1 0] 
r 9.002126000 _1_ RTR  --- 0 XFXVanets 48 [0 ffffffff 0 800] ------- [0:255 -1:255 1 0] 
r 9.003900000 _0_ RTR  --- 0 XFXVanets 48 [13a 0 1 800] ------- [1:255 0:255 1 0] 
M 10.00000 0 (5.00, 5.00, 0.00), (25.00, 25.00), 10.00
s 10.000000000 _1_ AGT  --- 10 cbr 1000 [0 0 0 0] ------- [1:0 0:0 32 0] [10] 0 0
r 10.000000000 _1_ RTR  --- 10 cbr 1000 [0 0 0 0] ------- [1:0 0:0 32 0] [10] 0 0
s 10.000000000 _0_ RTR  --- 0 XFXVanets 48 [0 0 0 0] ------- [0:255 -1:255 1 0] 
s 10.000000000 _1_ RTR  --- 0 XFXVanets 48 [0 0 0 0] ------- [1:255 -1:255 1 0] 
s 10.000000000 _1_ RTR  --- 0 XFXVanets 48 [0 0 0 0] ------- [1:255 0:255 1 0] 
r 10.001168000 _1_ RTR  --- 0 XFXVanets 48 [0 ffffffff 0 800] ------- [0:255 -1:255 1 0] 
r 10.002166000 _0_ RTR  --- 0 XFXVanets 48 [0 ffffffff 1 800] ------- [1:255 -1:255 1 0] 
r 10.003960000 _0_ RTR  --- 0 XFXVanets 48 [13a 0 1 800] ------- [1:255 0:255 1 0] 
s 11.000000000 _1_ AGT  --- 11 cbr 1000 [0 0 0 0] ------- [1:0 0:0 32 0] [11] 0 0
r 11.000000000 _1_ RTR  --- 11 cbr 1000 [0 0 0 0] ------- [1:0 0:0 32 0] [11] 0 0
s 11.000000000 _0_ RTR  --- 0 XFXVanets 48 [0 0 0 0] ------- [0:255 -1:255 1 0] 
s 11.000000000 _1_ RTR  --- 0 XFXVanets 48 [0 0 0 0] ------- [1:255 -1:255 1 0] 
s 11.000000000 _1_ RTR  --- 0 XFXVanets 48 [0 0 0 0] ------- [1:255 0:255 1 0] 
r 11.000948033 _0_ RTR  --- 0 XFXVanets 48 [0 ffffffff 1 800] ------- [1:255 -1:255 1 0] 
r 11.002762100 _0_ RTR  --- 0 XFXVanets 48 [13a 0 1 800] ------- [1:255 0:255 1 0] 
r 11.004034134 _1_ RTR  --- 0 XFXVanets 48 [0 ffffffff 0 800] ------- [0:255 -1:255 1 0] 
s 12.000000000 _1_ AGT  --- 12 cbr 1000 [0 0 0 0] ------- [1:0 0:0 32 0] [12] 0 0
r 12.000000000 _1_ RTR  --- 12 cbr 1000 [0 0 0 0] ------- [1:0 0:0 32 0] [12] 0 0
s 12.000000000 _0_ RTR  --- 0 XFXVanets 48 [0 0 0 0] ------- [0:255 -1:255 1 0] 
s 12.000000000 _1_ RTR  --- 0 XFXVanets 48 [0 0 0 0] ------- [1:255 -1:255 1 0] 
s 12.000000000 _1_ RTR  --- 0 XFXVanets 48 [0 0 0 0] ------- [1:255 0:255 1 0] 
r 12.000968067 _1_ RTR  --- 0 XFXVanets 48 [0 ffffffff 0 800] ------- [0:255 -1:255 1 0] 
r 12.002326133 _0_ RTR  --- 0 XFXVanets 48 [0 ffffffff 1 800] ------- [1:255 -1:255 1 0] 
r 12.004020267 _0_ RTR  --- 0 XFXVanets 48 [13a 0 1 800] ------- [1:255 0:255 1 0] 
s 13.000000000 _1_ AGT  --- 13 cbr 1000 [0 0 0 0] ------- [1:0 0:0 32 0] [13] 0 0
r 13.000000000 _1_ RTR  --- 13 cbr 1000 [0 0 0 0] ------- [1:0 0:0 32 0] [13] 0 0
s 13.000000000 _0_ RTR  --- 0 XFXVanets 48 [0 0 0 0] ------- [0:255 -1:255 1 0] 
s 13.000000000 _1_ RTR  --- 0 XFXVanets 48 [0 0 0 0] ------- [1:255 -1:255 1 0] 
s 13.000000000 _1_ RTR  --- 0 XFXVanets 48 [0 0 0 0] ------- [1:255 0:255 1 0] 
r 13.000988094 _1_ RTR  --- 0 XFXVanets 48 [0 ffffffff 0 800] ------- [0:255 -1:255 1 0] 
r 13.002306189 _0_ RTR  --- 0 XFXVanets 48 [0 ffffffff 1 800] ------- [1:255 -1:255 1 0] 
r 13.004080377 _0_ RTR  --- 0 XFXVanets 48 [13a 0 1 800] ------- [1:255 0:255 1 0] 
s 14.000000000 _1_ AGT  --- 14 cbr 1000 [0 0 0 0] ------- [1:0 0:0 32 0] [14] 0 0
r 14.000000000 _1_ RTR  --- 14 cbr 1000 [0 0 0 0] ------- [1:0 0:0 32 0] [14] 0 0
s 14.000000000 _0_ RTR  --- 0 XFXVanets 48 [0 0 0 0] ------- [0:255 -1:255 1 0] 
s 14.000000000 _1_ RTR  --- 0 XFXVanets 48 [0 0 0 0] ------- [1:255 -1:255 1 0] 
s 14.000000000 _1_ RTR  --- 0 XFXVanets 48 [0 0 0 0] ------- [1:255 0:255 1 0] 
r 14.001028094 _1_ RTR  --- 0 XFXVanets 48 [0 ffffffff 0 800] ------- [0:255 -1:255 1 0] 
r 14.002106189 _0_ RTR  --- 0 XFXVanets 48 [0 ffffffff 1 800] ------- [1:255 -1:255 1 0] 
r 14.003740377 _0_ RTR  --- 0 XFXVanets 48 [13a 0 1 800] ------- [1:255 0:255 1 0] 
s 15.000000000 _1_ AGT  --- 15 cbr 1000 [0 0 0 0] ------- [1:0 0:0 32 0] [15] 0 0
r 15.000000000 _1_ RTR  --- 15 cbr 1000 [0 0 0 0] ------- [1:0 0:0 32 0] [15] 0 0
s 15.000000000 _0_ RTR  --- 0 XFXVanets 48 [0 0 0 0] ------- [0:255 -1:255 1 0] 
s 15.000000000 _1_ RTR  --- 0 XFXVanets 48 [0 0 0 0] ------- [1:255 -1:255 1 0] 
s 15.000000000 _1_ RTR  --- 0 XFXVanets 48 [0 0 0 0] ------- [1:255 0:255 1 0] 
r 15.001068094 _0_ RTR  --- 0 XFXVanets 48 [0 ffffffff 1 800] ------- [1:255 -1:255 1 0] 
r 15.002702283 _0_ RTR  --- 0 XFXVanets 48 [13a 0 1 800] ------- [1:255 0:255 1 0] 
r 15.004354377 _1_ RTR  --- 0 XFXVanets 48 [0 ffffffff 0 800] ------- [0:255 -1:255 1 0] 
s 16.000000000 _1_ AGT  --- 16 cbr 1000 [0 0 0 0] ------- [1:0 0:0 32 0] [16] 0 0
r 16.000000000 _1_ RTR  --- 16 cbr 1000 [0 0 0 0] ------- [1:0 0:0 32 0] [16] 0 0
s 16.000000000 _0_ RTR  --- 0 XFXVanets 48 [0 0 0 0] ------- [0:255 -1:255 1 0] 
s 16.000000000 _1_ RTR  --- 0 XFXVanets 48 [0 0 0 0] ------- [1:255 -1:255 1 0] 
s 16.000000000 _1_ RTR  --- 0 XFXVanets 48 [0 0 0 0] ------- [1:255 0:255 1 0] 
r 16.001388094 _0_ RTR  --- 0 XFXVanets 48 [0 ffffffff 1 800] ------- [1:255 -1:255 1 0] 
r 16.002446189 _1_ RTR  --- 0 XFXVanets 48 [0 ffffffff 0 800] ------- [0:255 -1:255 1 0] 
r 16.004400471 _0_ RTR  --- 0 XFXVanets 48 [13a 0 1 800] ------- [1:255 0:255 1 0] 
s 17.000000000 _1_ AGT  --- 17 cbr 1000 [0 0 0 0] ------- [1:0 0:0 32 0] [17] 0 0
r 17.000000000 _1_ RTR  --- 17 cbr 1000 [0 0 0 0] ------- [1:0 0:0 32 0] [17] 0 0
s 17.000000000 _0_ RTR  --- 0 XFXVanets 48 [0 0 0 0] ------- [0:255 -1:255 1 0] 
s 17.000000000 _1_ RTR  --- 0 XFXVanets 48 [0 0 0 0] ------- [1:255 -1:255 1 0] 
s 17.000000000 _1_ RTR  --- 0 XFXVanets 48 [0 0 0 0] ------- [1:255 0:255 1 0] 
r 17.001248094 _1_ RTR  --- 0 XFXVanets 48 [0 ffffffff 0 800] ------- [0:255 -1:255 1 0] 
r 17.002186189 _0_ RTR  --- 0 XFXVanets 48 [0 ffffffff 1 800] ------- [1:255 -1:255 1 0] 
r 17.004340377 _0_ RTR  --- 0 XFXVanets 48 [13a 0 1 800] ------- [1:255 0:255 1 0] 
s 18.000000000 _1_ AGT  --- 18 cbr 1000 [0 0 0 0] ------- [1:0 0:0 32 0] [18] 0 0
r 18.000000000 _1_ RTR  --- 18 cbr 1000 [0 0 0 0] ------- [1:0 0:0 32 0] [18] 0 0
s 18.000000000 _0_ RTR  --- 0 XFXVanets 48 [0 0 0 0] ------- [0:255 -1:255 1 0] 
s 18.000000000 _1_ RTR  --- 0 XFXVanets 48 [0 0 0 0] ------- [1:255 -1:255 1 0] 
s 18.000000000 _1_ RTR  --- 0 XFXVanets 48 [0 0 0 0] ------- [1:255 0:255 1 0] 
r 18.001108094 _0_ RTR  --- 0 XFXVanets 48 [0 ffffffff 1 800] ------- [1:255 -1:255 1 0] 
r 18.002026189 _1_ RTR  --- 0 XFXVanets 48 [0 ffffffff 0 800] ------- [0:255 -1:255 1 0] 
r 18.004020471 _0_ RTR  --- 0 XFXVanets 48 [13a 0 1 800] ------- [1:255 0:255 1 0] 
s 19.000000000 _1_ AGT  --- 19 cbr 1000 [0 0 0 0] ------- [1:0 0:0 32 0] [19] 0 0
r 19.000000000 _1_ RTR  --- 19 cbr 1000 [0 0 0 0] ------- [1:0 0:0 32 0] [19] 0 0
s 19.000000000 _0_ RTR  --- 0 XFXVanets 48 [0 0 0 0] ------- [0:255 -1:255 1 0] 
s 19.000000000 _1_ RTR  --- 0 XFXVanets 48 [0 0 0 0] ------- [1:255 -1:255 1 0] 
s 19.000000000 _1_ RTR  --- 0 XFXVanets 48 [0 0 0 0] ------- [1:255 0:255 1 0] 
r 19.001108094 _1_ RTR  --- 0 XFXVanets 48 [0 ffffffff 0 800] ------- [0:255 -1:255 1 0] 
r 19.002066189 _0_ RTR  --- 0 XFXVanets 48 [0 ffffffff 1 800] ------- [1:255 -1:255 1 0] 
r 19.003780377 _0_ RTR  --- 0 XFXVanets 48 [13a 0 1 800] ------- [1:255 0:255 1 0] 
s 20.000000000 _1_ AGT  --- 20 cbr 1000 [0 0 0 0] ------- [1:0 0:0 32 0] [20] 0 0
r 20.000000000 _1_ RTR  --- 20 cbr 1000 [0 0 0 0] ------- [1:0 0:0 32 0] [20] 0 0
s 20.000000000 _0_ RTR  --- 0 XFXVanets 48 [0 0 0 0] ------- [0:255 -1:255 1 0] 
s 20.000000000 _1_ RTR  --- 0 XFXVanets 48 [0 0 0 0] ------- [1:255 -1:255 1 0] 
s 20.000000000 _1_ RTR  --- 0 XFXVanets 48 [0 0 0 0] ------- [1:255 0:255 1 0] 
r 20.001268094 _1_ RTR  --- 0 XFXVanets 48 [0 ffffffff 0 800] ------- [0:255 -1:255 1 0] 
r 20.002266189 _0_ RTR  --- 0 XFXVanets 48 [0 ffffffff 1 800] ------- [1:255 -1:255 1 0] 
r 20.004160377 _0_ RTR  --- 0 XFXVanets 48 [13a 0 1 800] ------- [1:255 0:255 1 0] 
s 21.000000000 _1_ AGT  --- 21 cbr 1000 [0 0 0 0] ------- [1:0 0:0 32 0] [21] 0 0
r 21.000000000 _1_ RTR  --- 21 cbr 1000 [0 0 0 0] ------- [1:0 0:0 32 0] [21] 0 0
s 21.000000000 _0_ RTR  --- 0 XFXVanets 48 [0 0 0 0] ------- [0:255 -1:255 1 0] 
s 21.000000000 _1_ RTR  --- 0 XFXVanets 48 [0 0 0 0] ------- [1:255 -1:255 1 0] 
s 21.000000000 _1_ RTR  --- 0 XFXVanets 48 [0 0 0 0] ------- [1:255 0:255 1 0] 
r 21.000968094 _1_ RTR  --- 0 XFXVanets 48 [0 ffffffff 0 800] ------- [0:255 -1:255 1 0] 
r 21.002106189 _0_ RTR  --- 0 XFXVanets 48 [0 ffffffff 1 800] ------- [1:255 -1:255 1 0] 
r 21.003680377 _0_ RTR  --- 0 XFXVanets 48 [13a 0 1 800] ------- [1:255 0:255 1 0] 
s 22.000000000 _1_ AGT  --- 22 cbr 1000 [0 0 0 0] ------- [1:0 0:0 32 0] [22] 0 0
r 22.000000000 _1_ RTR  --- 22 cbr 1000 [0 0 0 0] ------- [1:0 0:0 32 0] [22] 0 0
s 22.000000000 _0_ RTR  --- 0 XFXVanets 48 [0 0 0 0] ------- [0:255 -1:255 1 0] 
s 22.000000000 _1_ RTR  --- 0 XFXVanets 48 [0 0 0 0] ------- [1:255 -1:255 1 0] 
s 22.000000000 _1_ RTR  --- 0 XFXVanets 48 [0 0 0 0] ------- [1:255 0:255 1 0] 
r 22.001468094 _1_ RTR  --- 0 XFXVanets 48 [0 ffffffff 0 800] ------- [0:255 -1:255 1 0] 
r 22.002446189 _0_ RTR  --- 0 XFXVanets 48 [0 ffffffff 1 800] ------- [1:255 -1:255 1 0] 
r 22.004040377 _0_ RTR  --- 0 XFXVanets 48 [13a 0 1 800] ------- [1:255 0:255 1 0] 
s 23.000000000 _1_ AGT  --- 23 cbr 1000 [0 0 0 0] ------- [1:0 0:0 32 0] [23] 0 0
r 23.000000000 _1_ RTR  --- 23 cbr 1000 [0 0 0 0] ------- [1:0 0:0 32 0] [23] 0 0
s 23.000000000 _0_ RTR  --- 0 XFXVanets 48 [0 0 0 0] ------- [0:255 -1:255 1 0] 
s 23.000000000 _1_ RTR  --- 0 XFXVanets 48 [0 0 0 0] ------- [1:255 -1:255 1 0] 
s 23.000000000 _1_ RTR  --- 0 XFXVanets 48 [0 0 0 0] ------- [1:255 0:255 1 0] 
r 23.001008094 _1_ RTR  --- 0 XFXVanets 48 [0 ffffffff 0 800] ------- [0:255 -1:255 1 0] 
r 23.002106189 _0_ RTR  --- 0 XFXVanets 48 [0 ffffffff 1 800] ------- [1:255 -1:255 1 0] 
r 23.003700377 _0_ RTR  --- 0 XFXVanets 48 [13a 0 1 800] ------- [1:255 0:255 1 0] 
s 24.000000000 _1_ AGT  --- 24 cbr 1000 [0 0 0 0] ------- [1:0 0:0 32 0] [24] 0 0
r 24.000000000 _1_ RTR  --- 24 cbr 1000 [0 0 0 0] ------- [1:0 0:0 32 0] [24] 0 0
s 24.000000000 _0_ RTR  --- 0 XFXVanets 48 [0 0 0 0] ------- [0:255 -1:255 1 0] 
s 24.000000000 _1_ RTR  --- 0 XFXVanets 48 [0 0 0 0] ------- [1:255 -1:255 1 0] 
s 24.000000000 _1_ RTR  --- 0 XFXVanets 48 [0 0 0 0] ------- [1:255 0:255 1 0] 
r 24.001328094 _0_ RTR  --- 0 XFXVanets 48 [0 ffffffff 1 800] ------- [1:255 -1:255 1 0] 
r 24.002286189 _1_ RTR  --- 0 XFXVanets 48 [0 ffffffff 0 800] ------- [0:255 -1:255 1 0] 
r 24.004280471 _0_ RTR  --- 0 XFXVanets 48 [13a 0 1 800] ------- [1:255 0:255 1 0] 
s 25.000000000 _1_ AGT  --- 25 cbr 1000 [0 0 0 0] ------- [1:0 0:0 32 0] [25] 0 0
r 25.000000000 _1_ RTR  --- 25 cbr 1000 [0 0 0 0] ------- [1:0 0:0 32 0] [25] 0 0
s 25.000000000 _0_ RTR  --- 0 XFXVanets 48 [0 0 0 0] ------- [0:255 -1:255 1 0] 
s 25.000000000 _1_ RTR  --- 0 XFXVanets 48 [0 0 0 0] ------- [1:255 -1:255 1 0] 
s 25.000000000 _1_ RTR  --- 0 XFXVanets 48 [0 0 0 0] ------- [1:255 0:255 1 0] 
r 25.001128094 _0_ RTR  --- 0 XFXVanets 48 [0 ffffffff 1 800] ------- [1:255 -1:255 1 0] 
r 25.002842283 _0_ RTR  --- 0 XFXVanets 48 [13a 0 1 800] ------- [1:255 0:255 1 0] 
r 25.004294377 _1_ RTR  --- 0 XFXVanets 48 [0 ffffffff 0 800] ------- [0:255 -1:255 1 0] 
s 26.000000000 _1_ AGT  --- 26 cbr 1000 [0 0 0 0] ------- [1:0 0:0 32 0] [26] 0 0
r 26.000000000 _1_ RTR  --- 26 cbr 1000 [0 0 0 0] ------- [1:0 0:0 32 0] [26] 0 0
s 26.000000000 _0_ RTR  --- 0 XFXVanets 48 [0 0 0 0] ------- [0:255 -1:255 1 0] 
s 26.000000000 _1_ RTR  --- 0 XFXVanets 48 [0 0 0 0] ------- [1:255 -1:255 1 0] 
s 26.000000000 _1_ RTR  --- 0 XFXVanets 48 [0 0 0 0] ------- [1:255 0:255 1 0] 
r 26.000948094 _0_ RTR  --- 0 XFXVanets 48 [0 ffffffff 1 800] ------- [1:255 -1:255 1 0] 
r 26.001946189 _1_ RTR  --- 0 XFXVanets 48 [0 ffffffff 0 800] ------- [0:255 -1:255 1 0] 
r 26.003960471 _0_ RTR  --- 0 XFXVanets 48 [13a 0 1 800] ------- [1:255 0:255 1 0] 
s 27.000000000 _1_ AGT  --- 27 cbr 1000 [0 0 0 0] ------- [1:0 0:0 32 0] [27] 0 0
r 27.000000000 _1_ RTR  --- 27 cbr 1000 [0 0 0 0] ------- [1:0 0:0 32 0] [27] 0 0
s 27.000000000 _0_ RTR  --- 0 XFXVanets 48 [0 0 0 0] ------- [0:255 -1:255 1 0] 
s 27.000000000 _1_ RTR  --- 0 XFXVanets 48 [0 0 0 0] ------- [1:255 -1:255 1 0] 
s 27.000000000 _1_ RTR  --- 0 XFXVanets 48 [0 0 0 0] ------- [1:255 0:255 1 0] 
r 27.001168094 _0_ RTR  --- 0 XFXVanets 48 [0 ffffffff 1 800] ------- [1:255 -1:255 1 0] 
r 27.002426189 _1_ RTR  --- 0 XFXVanets 48 [0 ffffffff 0 800] ------- [0:255 -1:255 1 0] 
r 27.004160471 _0_ RTR  --- 0 XFXVanets 48 [13a 0 1 800] ------- [1:255 0:255 1 0] 
s 28.000000000 _1_ AGT  --- 28 cbr 1000 [0 0 0 0] ------- [1:0 0:0 32 0] [28] 0 0
r 28.000000000 _1_ RTR  --- 28 cbr 1000 [0 0 0 0] ------- [1:0 0:0 32 0] [28] 0 0
s 28.000000000 _0_ RTR  --- 0 XFXVanets 48 [0 0 0 0] ------- [0:255 -1:255 1 0] 
s 28.000000000 _1_ RTR  --- 0 XFXVanets 48 [0 0 0 0] ------- [1:255 -1:255 1 0] 
s 28.000000000 _1_ RTR  --- 0 XFXVanets 48 [0 0 0 0] ------- [1:255 0:255 1 0] 
r 28.001048094 _0_ RTR  --- 0 XFXVanets 48 [0 ffffffff 1 800] ------- [1:255 -1:255 1 0] 
r 28.002802283 _0_ RTR  --- 0 XFXVanets 48 [13a 0 1 800] ------- [1:255 0:255 1 0] 
r 28.004274377 _1_ RTR  --- 0 XFXVanets 48 [0 ffffffff 0 800] ------- [0:255 -1:255 1 0] 
s 29.000000000 _1_ AGT  --- 29 cbr 1000 [0 0 0 0] ------- [1:0 0:0 32 0] [29] 0 0
r 29.000000000 _1_ RTR  --- 29 cbr 1000 [0 0 0 0] ------- [1:0 0:0 32 0] [29] 0 0
s 29.000000000 _0_ RTR  --- 0 XFXVanets 48 [0 0 0 0] ------- [0:255 -1:255 1 0] 
s 29.000000000 _1_ RTR  --- 0 XFXVanets 48 [0 0 0 0] ------- [1:255 -1:255 1 0] 
s 29.000000000 _1_ RTR  --- 0 XFXVanets 48 [0 0 0 0] ------- [1:255 0:255 1 0] 
r 29.001188094 _0_ RTR  --- 0 XFXVanets 48 [0 ffffffff 1 800] ------- [1:255 -1:255 1 0] 
r 29.002762283 _0_ RTR  --- 0 XFXVanets 48 [13a 0 1 800] ------- [1:255 0:255 1 0] 
r 29.004234377 _1_ RTR  --- 0 XFXVanets 48 [0 ffffffff 0 800] ------- [0:255 -1:255 1 0] 
s 30.000000000 _1_ AGT  --- 30 cbr 1000 [0 0 0 0] ------- [1:0 0:0 32 0] [30] 0 0
r 30.000000000 _1_ RTR  --- 30 cbr 1000 [0 0 0 0] ------- [1:0 0:0 32 0] [30] 0 0
s 30.000000000 _0_ RTR  --- 0 XFXVanets 48 [0 0 0 0] ------- [0:255 -1:255 1 0] 
s 30.000000000 _1_ RTR  --- 0 XFXVanets 48 [0 0 0 0] ------- [1:255 -1:255 1 0] 
s 30.000000000 _1_ RTR  --- 0 XFXVanets 48 [0 0 0 0] ------- [1:255 0:255 1 0] 
r 30.001108094 _1_ RTR  --- 0 XFXVanets 48 [0 ffffffff 0 800] ------- [0:255 -1:255 1 0] 
r 30.002346189 _0_ RTR  --- 0 XFXVanets 48 [0 ffffffff 1 800] ------- [1:255 -1:255 1 0] 
r 30.004060377 _0_ RTR  --- 0 XFXVanets 48 [13a 0 1 800] ------- [1:255 0:255 1 0] 
s 31.000000000 _1_ AGT  --- 31 cbr 1000 [0 0 0 0] ------- [1:0 0:0 32 0] [31] 0 0
r 31.000000000 _1_ RTR  --- 31 cbr 1000 [0 0 0 0] ------- [1:0 0:0 32 0] [31] 0 0
s 31.000000000 _0_ RTR  --- 0 XFXVanets 48 [0 0 0 0] ------- [0:255 -1:255 1 0] 
s 31.000000000 _1_ RTR  --- 0 XFXVanets 48 [0 0 0 0] ------- [1:255 -1:255 1 0] 
s 31.000000000 _1_ RTR  --- 0 XFXVanets 48 [0 0 0 0] ------- [1:255 0:255 1 0] 
r 31.000988094 _0_ RTR  --- 0 XFXVanets 48 [0 ffffffff 1 800] ------- [1:255 -1:255 1 0] 
r 31.003042283 _0_ RTR  --- 0 XFXVanets 48 [13a 0 1 800] ------- [1:255 0:255 1 0] 
r 31.004294377 _1_ RTR  --- 0 XFXVanets 48 [0 ffffffff 0 800] ------- [0:255 -1:255 1 0] 
s 32.000000000 _1_ AGT  --- 32 cbr 1000 [0 0 0 0] ------- [1:0 0:0 32 0] [32] 0 0
r 32.000000000 _1_ RTR  --- 32 cbr 1000 [0 0 0 0] ------- [1:0 0:0 32 0] [32] 0 0
s 32.000000000 _0_ RTR  --- 0 XFXVanets 48 [0 0 0 0] ------- [0:255 -1:255 1 0] 
s 32.000000000 _1_ RTR  --- 0 XFXVanets 48 [0 0 0 0] ------- [1:255 -1:255 1 0] 
s 32.000000000 _1_ RTR  --- 0 XFXVanets 48 [0 0 0 0] ------- [1:255 0:255 1 0] 
r 32.001028094 _1_ RTR  --- 0 XFXVanets 48 [0 ffffffff 0 800] ------- [0:255 -1:255 1 0] 
r 32.002406189 _0_ RTR  --- 0 XFXVanets 48 [0 ffffffff 1 800] ------- [1:255 -1:255 1 0] 
r 32.004320377 _0_ RTR  --- 0 XFXVanets 48 [13a 0 1 800] ------- [1:255 0:255 1 0] 
s 33.000000000 _1_ AGT  --- 33 cbr 1000 [0 0 0 0] ------- [1:0 0:0 32 0] [33] 0 0
r 33.000000000 _1_ RTR  --- 33 cbr 1000 [0 0 0 0] ------- [1:0 0:0 32 0] [33] 0 0
s 33.000000000 _0_ RTR  --- 0 XFXVanets 48 [0 0 0 0] ------- [0:255 -1:255 1 0] 
s 33.000000000 _1_ RTR  --- 0 XFXVanets 48 [0 0 0 0] ------- [1:255 -1:255 1 0] 
s 33.000000000 _1_ RTR  --- 0 XFXVanets 48 [0 0 0 0] ------- [1:255 0:255 1 0] 
r 33.000988094 _0_ RTR  --- 0 XFXVanets 48 [0 ffffffff 1 800] ------- [1:255 -1:255 1 0] 
r 33.002326189 _1_ RTR  --- 0 XFXVanets 48 [0 ffffffff 0 800] ------- [0:255 -1:255 1 0] 
r 33.003980471 _0_ RTR  --- 0 XFXVanets 48 [13a 0 1 800] ------- [1:255 0:255 1 0] 
s 34.000000000 _1_ AGT  --- 34 cbr 1000 [0 0 0 0] ------- [1:0 0:0 32 0] [34] 0 0
r 34.000000000 _1_ RTR  --- 34 cbr 1000 [0 0 0 0] ------- [1:0 0:0 32 0] [34] 0 0
s 34.000000000 _0_ RTR  --- 0 XFXVanets 48 [0 0 0 0] ------- [0:255 -1:255 1 0] 
s 34.000000000 _1_ RTR  --- 0 XFXVanets 48 [0 0 0 0] ------- [1:255 -1:255 1 0] 
s 34.000000000 _1_ RTR  --- 0 XFXVanets 48 [0 0 0 0] ------- [1:255 0:255 1 0] 
r 34.000948094 _0_ RTR  --- 0 XFXVanets 48 [0 ffffffff 1 800] ------- [1:255 -1:255 1 0] 
r 34.003082283 _0_ RTR  --- 0 XFXVanets 48 [13a 0 1 800] ------- [1:255 0:255 1 0] 
r 34.004334377 _1_ RTR  --- 0 XFXVanets 48 [0 ffffffff 0 800] ------- [0:255 -1:255 1 0] 
s 35.000000000 _1_ AGT  --- 35 cbr 1000 [0 0 0 0] ------- [1:0 0:0 32 0] [35] 0 0
r 35.000000000 _1_ RTR  --- 35 cbr 1000 [0 0 0 0] ------- [1:0 0:0 32 0] [35] 0 0
s 35.000000000 _0_ RTR  --- 0 XFXVanets 48 [0 0 0 0] ------- [0:255 -1:255 1 0] 
s 35.000000000 _1_ RTR  --- 0 XFXVanets 48 [0 0 0 0] ------- [1:255 -1:255 1 0] 
s 35.000000000 _1_ RTR  --- 0 XFXVanets 48 [0 0 0 0] ------- [1:255 0:255 1 0] 
r 35.001008094 _1_ RTR  --- 0 XFXVanets 48 [0 ffffffff 0 800] ------- [0:255 -1:255 1 0] 
r 35.002146189 _0_ RTR  --- 0 XFXVanets 48 [0 ffffffff 1 800] ------- [1:255 -1:255 1 0] 
r 35.003840377 _0_ RTR  --- 0 XFXVanets 48 [13a 0 1 800] ------- [1:255 0:255 1 0] 
s 36.000000000 _1_ AGT  --- 36 cbr 1000 [0 0 0 0] ------- [1:0 0:0 32 0] [36] 0 0
r 36.000000000 _1_ RTR  --- 36 cbr 1000 [0 0 0 0] ------- [1:0 0:0 32 0] [36] 0 0
s 36.000000000 _0_ RTR  --- 0 XFXVanets 48 [0 0 0 0] ------- [0:255 -1:255 1 0] 
s 36.000000000 _1_ RTR  --- 0 XFXVanets 48 [0 0 0 0] ------- [1:255 -1:255 1 0] 
s 36.000000000 _1_ RTR  --- 0 XFXVanets 48 [0 0 0 0] ------- [1:255 0:255 1 0] 
r 36.000948094 _0_ RTR  --- 0 XFXVanets 48 [0 ffffffff 1 800] ------- [1:255 -1:255 1 0] 
r 36.001866189 _1_ RTR  --- 0 XFXVanets 48 [0 ffffffff 0 800] ------- [0:255 -1:255 1 0] 
r 36.003500471 _0_ RTR  --- 0 XFXVanets 48 [13a 0 1 800] ------- [1:255 0:255 1 0] 
s 37.000000000 _1_ AGT  --- 37 cbr 1000 [0 0 0 0] ------- [1:0 0:0 32 0] [37] 0 0
r 37.000000000 _1_ RTR  --- 37 cbr 1000 [0 0 0 0] ------- [1:0 0:0 32 0] [37] 0 0
s 37.000000000 _0_ RTR  --- 0 XFXVanets 48 [0 0 0 0] ------- [0:255 -1:255 1 0] 
s 37.000000000 _1_ RTR  --- 0 XFXVanets 48 [0 0 0 0] ------- [1:255 -1:255 1 0] 
s 37.000000000 _1_ RTR  --- 0 XFXVanets 48 [0 0 0 0] ------- [1:255 0:255 1 0] 
r 37.001108094 _0_ RTR  --- 0 XFXVanets 48 [0 ffffffff 1 800] ------- [1:255 -1:255 1 0] 
r 37.002186189 _1_ RTR  --- 0 XFXVanets 48 [0 ffffffff 0 800] ------- [0:255 -1:255 1 0] 
r 37.003940471 _0_ RTR  --- 0 XFXVanets 48 [13a 0 1 800] ------- [1:255 0:255 1 0] 
s 38.000000000 _1_ AGT  --- 38 cbr 1000 [0 0 0 0] ------- [1:0 0:0 32 0] [38] 0 0
r 38.000000000 _1_ RTR  --- 38 cbr 1000 [0 0 0 0] ------- [1:0 0:0 32 0] [38] 0 0
s 38.000000000 _0_ RTR  --- 0 XFXVanets 48 [0 0 0 0] ------- [0:255 -1:255 1 0] 
s 38.000000000 _1_ RTR  --- 0 XFXVanets 48 [0 0 0 0] ------- [1:255 -1:255 1 0] 
s 38.000000000 _1_ RTR  --- 0 XFXVanets 48 [0 0 0 0] ------- [1:255 0:255 1 0] 
r 38.000988094 _0_ RTR  --- 0 XFXVanets 48 [0 ffffffff 1 800] ------- [1:255 -1:255 1 0] 
r 38.002662283 _0_ RTR  --- 0 XFXVanets 48 [13a 0 1 800] ------- [1:255 0:255 1 0] 
r 38.004274377 _1_ RTR  --- 0 XFXVanets 48 [0 ffffffff 0 800] ------- [0:255 -1:255 1 0] 
s 39.000000000 _1_ AGT  --- 39 cbr 1000 [0 0 0 0] ------- [1:0 0:0 32 0] [39] 0 0
r 39.000000000 _1_ RTR  --- 39 cbr 1000 [0 0 0 0] ------- [1:0 0:0 32 0] [39] 0 0
s 39.000000000 _0_ RTR  --- 0 XFXVanets 48 [0 0 0 0] ------- [0:255 -1:255 1 0] 
s 39.000000000 _1_ RTR  --- 0 XFXVanets 48 [0 0 0 0] ------- [1:255 -1:255 1 0] 
s 39.000000000 _1_ RTR  --- 0 XFXVanets 48 [0 0 0 0] ------- [1:255 0:255 1 0] 
r 39.001268094 _0_ RTR  --- 0 XFXVanets 48 [0 ffffffff 1 800] ------- [1:255 -1:255 1 0] 
r 39.002366189 _1_ RTR  --- 0 XFXVanets 48 [0 ffffffff 0 800] ------- [0:255 -1:255 1 0] 
r 39.004020471 _0_ RTR  --- 0 XFXVanets 48 [13a 0 1 800] ------- [1:255 0:255 1 0] 
s 40.000000000 _1_ AGT  --- 40 cbr 1000 [0 0 0 0] ------- [1:0 0:0 32 0] [40] 0 0
r 40.000000000 _1_ RTR  --- 40 cbr 1000 [0 0 0 0] ------- [1:0 0:0 32 0] [40] 0 0
s 40.000000000 _0_ RTR  --- 0 XFXVanets 48 [0 0 0 0] ------- [0:255 -1:255 1 0] 
s 40.000000000 _1_ RTR  --- 0 XFXVanets 48 [0 0 0 0] ------- [1:255 -1:255 1 0] 
s 40.000000000 _1_ RTR  --- 0 XFXVanets 48 [0 0 0 0] ------- [1:255 0:255 1 0] 
r 40.003586377 _0_ RTR  --- 0 XFXVanets 48 [13a 0 1 800] ------- [1:255 0:255 1 0] 
s 41.000000000 _1_ AGT  --- 41 cbr 1000 [0 0 0 0] ------- [1:0 0:0 32 0] [41] 0 0
r 41.000000000 _1_ RTR  --- 41 cbr 1000 [0 0 0 0] ------- [1:0 0:0 32 0] [41] 0 0
s 41.000000000 _0_ RTR  --- 0 XFXVanets 48 [0 0 0 0] ------- [0:255 -1:255 1 0] 
s 41.000000000 _1_ RTR  --- 0 XFXVanets 48 [0 0 0 0] ------- [1:255 -1:255 1 0] 
s 41.000000000 _1_ RTR  --- 0 XFXVanets 48 [0 0 0 0] ------- [1:255 0:255 1 0] 
r 41.001048094 _1_ RTR  --- 0 XFXVanets 48 [0 ffffffff 0 800] ------- [0:255 -1:255 1 0] 
r 41.002206189 _0_ RTR  --- 0 XFXVanets 48 [0 ffffffff 1 800] ------- [1:255 -1:255 1 0] 
r 41.004240377 _0_ RTR  --- 0 XFXVanets 48 [13a 0 1 800] ------- [1:255 0:255 1 0] 
s 42.000000000 _1_ AGT  --- 42 cbr 1000 [0 0 0 0] ------- [1:0 0:0 32 0] [42] 0 0
r 42.000000000 _1_ RTR  --- 42 cbr 1000 [0 0 0 0] ------- [1:0 0:0 32 0] [42] 0 0
s 42.000000000 _0_ RTR  --- 0 XFXVanets 48 [0 0 0 0] ------- [0:255 -1:255 1 0] 
s 42.000000000 _1_ RTR  --- 0 XFXVanets 48 [0 0 0 0] ------- [1:255 -1:255 1 0] 
s 42.000000000 _1_ RTR  --- 0 XFXVanets 48 [0 0 0 0] ------- [1:255 0:255 1 0] 
r 42.000948094 _1_ RTR  --- 0 XFXVanets 48 [0 ffffffff 0 800] ------- [0:255 -1:255 1 0] 
r 42.002266189 _0_ RTR  --- 0 XFXVanets 48 [0 ffffffff 1 800] ------- [1:255 -1:255 1 0] 
r 42.003940377 _0_ RTR  --- 0 XFXVanets 48 [13a 0 1 800] ------- [1:255 0:255 1 0] 
s 43.000000000 _1_ AGT  --- 43 cbr 1000 [0 0 0 0] ------- [1:0 0:0 32 0] [43] 0 0
r 43.000000000 _1_ RTR  --- 43 cbr 1000 [0 0 0 0] ------- [1:0 0:0 32 0] [43] 0 0
s 43.000000000 _0_ RTR  --- 0 XFXVanets 48 [0 0 0 0] ------- [0:255 -1:255 1 0] 
s 43.000000000 _1_ RTR  --- 0 XFXVanets 48 [0 0 0 0] ------- [1:255 -1:255 1 0] 
s 43.000000000 _1_ RTR  --- 0 XFXVanets 48 [0 0 0 0] ------- [1:255 0:255 1 0] 
r 43.000968094 _0_ RTR  --- 0 XFXVanets 48 [0 ffffffff 1 800] ------- [1:255 -1:255 1 0] 
r 43.001946189 _1_ RTR  --- 0 XFXVanets 48 [0 ffffffff 0 800] ------- [0:255 -1:255 1 0] 
r 43.003960471 _0_ RTR  --- 0 XFXVanets 48 [13a 0 1 800] ------- [1:255 0:255 1 0] 
s 44.000000000 _1_ AGT  --- 44 cbr 1000 [0 0 0 0] ------- [1:0 0:0 32 0] [44] 0 0
r 44.000000000 _1_ RTR  --- 44 cbr 1000 [0 0 0 0] ------- [1:0 0:0 32 0] [44] 0 0
s 44.000000000 _0_ RTR  --- 0 XFXVanets 48 [0 0 0 0] ------- [0:255 -1:255 1 0] 
s 44.000000000 _1_ RTR  --- 0 XFXVanets 48 [0 0 0 0] ------- [1:255 -1:255 1 0] 
s 44.000000000 _1_ RTR  --- 0 XFXVanets 48 [0 0 0 0] ------- [1:255 0:255 1 0] 
r 44.001528094 _0_ RTR  --- 0 XFXVanets 48 [0 ffffffff 1 800] ------- [1:255 -1:255 1 0] 
r 44.002446189 _1_ RTR  --- 0 XFXVanets 48 [0 ffffffff 0 800] ------- [0:255 -1:255 1 0] 
r 44.004160471 _0_ RTR  --- 0 XFXVanets 48 [13a 0 1 800] ------- [1:255 0:255 1 0] 