s 0.000000000 _0_ AGT  --- 0 cbr 1000 [0 0 0 0] ------- [0:0 1:0 32 0] [0] 0 0
r 0.000000000 _0_ RTR  --- 0 cbr 1000 [0 0 0 0] ------- [0:0 1:0 32 0] [0] 0 0
s 0.000000000 _0_ RTR  --- 0 XFXVanets 48 [0 0 0 0] ------- [0:255 -1:255 1 0] 
s 0.000000000 _1_ RTR  --- 0 XFXVanets 48 [0 0 0 0] ------- [1:255 -1:255 1 0] 
s 0.000000000 _2_ RTR  --- 0 XFXVanets 48 [0 0 0 0] ------- [2:255 -1:255 1 0] 
M 1.00000 1 (250.00, 250.00, 10.00), (250.00, 250.00), 10.00
M 1.00000 0 (5.00, 50.00, 10.00), (5.00, 5.00), 10.00
M 1.00000 2 (50.00, 50.00, 10.00), (50.00, 50.00), 10.00
s 1.000000000 _0_ AGT  --- 1 cbr 1000 [0 0 0 0] ------- [0:0 1:0 32 0] [1] 0 0
r 1.000000000 _0_ RTR  --- 1 cbr 1000 [0 0 0 0] ------- [0:0 1:0 32 0] [1] 0 0
s 1.000000000 _0_ RTR  --- 0 XFXVanets 48 [0 0 0 0] ------- [0:255 -1:255 1 0] 
s 1.000000000 _1_ RTR  --- 0 XFXVanets 48 [0 0 0 0] ------- [1:255 -1:255 1 0] 
s 1.000000000 _2_ RTR  --- 0 XFXVanets 48 [0 0 0 0] ------- [2:255 -1:255 1 0] 
s 2.000000000 _0_ AGT  --- 2 cbr 1000 [0 0 0 0] ------- [0:0 1:0 32 0] [2] 0 0
r 2.000000000 _0_ RTR  --- 2 cbr 1000 [0 0 0 0] ------- [0:0 1:0 32 0] [2] 0 0
s 2.000000000 _0_ RTR  --- 0 XFXVanets 48 [0 0 0 0] ------- [0:255 -1:255 1 0] 
s 2.000000000 _1_ RTR  --- 0 XFXVanets 48 [0 0 0 0] ------- [1:255 -1:255 1 0] 
s 2.000000000 _2_ RTR  --- 0 XFXVanets 48 [0 0 0 0] ------- [2:255 -1:255 1 0] 
M 3.00000 0 (5.00, 30.00, 10.00), (25.00, 50.00), 10.00
M 3.00000 2 (50.00, 50.00, 10.00), (25.00, 45.00), 10.00
s 3.000000000 _0_ AGT  --- 3 cbr 1000 [0 0 0 0] ------- [0:0 1:0 32 0] [3] 0 0
r 3.000000000 _0_ RTR  --- 3 cbr 1000 [0 0 0 0] ------- [0:0 1:0 32 0] [3] 0 0
s 3.000000000 _0_ RTR  --- 0 XFXVanets 48 [0 0 0 0] ------- [0:255 -1:255 1 0] 
s 3.000000000 _1_ RTR  --- 0 XFXVanets 48 [0 0 0 0] ------- [1:255 -1:255 1 0] 
s 3.000000000 _2_ RTR  --- 0 XFXVanets 48 [0 0 0 0] ------- [2:255 -1:255 1 0] 
s 4.000000000 _0_ AGT  --- 4 cbr 1000 [0 0 0 0] ------- [0:0 1:0 32 0] [4] 0 0
r 4.000000000 _0_ RTR  --- 4 cbr 1000 [0 0 0 0] ------- [0:0 1:0 32 0] [4] 0 0
s 4.000000000 _0_ RTR  --- 0 XFXVanets 48 [0 0 0 0] ------- [0:255 -1:255 1 0] 
s 4.000000000 _1_ RTR  --- 0 XFXVanets 48 [0 0 0 0] ------- [1:255 -1:255 1 0] 
s 4.000000000 _2_ RTR  --- 0 XFXVanets 48 [0 0 0 0] ------- [2:255 -1:255 1 0] 
s 5.000000000 _0_ AGT  --- 5 cbr 1000 [0 0 0 0] ------- [0:0 1:0 32 0] [5] 0 0
r 5.000000000 _0_ RTR  --- 5 cbr 1000 [0 0 0 0] ------- [0:0 1:0 32 0] [5] 0 0
s 5.000000000 _0_ RTR  --- 0 XFXVanets 48 [0 0 0 0] ------- [0:255 -1:255 1 0] 
s 5.000000000 _1_ RTR  --- 0 XFXVanets 48 [0 0 0 0] ------- [1:255 -1:255 1 0] 
s 5.000000000 _2_ RTR  --- 0 XFXVanets 48 [0 0 0 0] ------- [2:255 -1:255 1 0] 
r 5.001248038 _0_ RTR  --- 0 XFXVanets 48 [0 ffffffff 2 800] ------- [2:255 -1:255 1 0] 
r 5.002206076 _2_ RTR  --- 0 XFXVanets 48 [0 ffffffff 0 800] ------- [0:255 -1:255 1 0] 
M 6.00000 0 (25.00, 50.00, 10.00), (15.00, 15.00), 10.00
M 6.00000 2 (25.00, 45.00, 10.00), (250.00, 250.00), 10.00
s 6.000000000 _0_ AGT  --- 6 cbr 1000 [0 0 0 0] ------- [0:0 1:0 32 0] [6] 0 0
r 6.000000000 _0_ RTR  --- 6 cbr 1000 [0 0 0 0] ------- [0:0 1:0 32 0] [6] 0 0
s 6.000000000 _0_ RTR  --- 0 XFXVanets 48 [0 0 0 0] ------- [0:255 -1:255 1 0] 
s 6.000000000 _1_ RTR  --- 0 XFXVanets 48 [0 0 0 0] ------- [1:255 -1:255 1 0] 
s 6.000000000 _2_ RTR  --- 0 XFXVanets 48 [0 0 0 0] ------- [2:255 -1:255 1 0] 
r 6.001048017 _0_ RTR  --- 0 XFXVanets 48 [0 ffffffff 2 800] ------- [2:255 -1:255 1 0] 
r 6.002126033 _2_ RTR  --- 0 XFXVanets 48 [0 ffffffff 0 800] ------- [0:255 -1:255 1 0] 
s 7.000000000 _0_ AGT  --- 7 cbr 1000 [0 0 0 0] ------- [0:0 1:0 32 0] [7] 0 0
r 7.000000000 _0_ RTR  --- 7 cbr 1000 [0 0 0 0] ------- [0:0 1:0 32 0] [7] 0 0
s 7.000000000 _0_ RTR  --- 0 XFXVanets 48 [0 0 0 0] ------- [0:255 -1:255 1 0] 
s 7.000000000 _1_ RTR  --- 0 XFXVanets 48 [0 0 0 0] ------- [1:255 -1:255 1 0] 
s 7.000000000 _2_ RTR  --- 0 XFXVanets 48 [0 0 0 0] ------- [2:255 -1:255 1 0] 
s 8.000000000 _0_ AGT  --- 8 cbr 1000 [0 0 0 0] ------- [0:0 1:0 32 0] [8] 0 0
r 8.000000000 _0_ RTR  --- 8 cbr 1000 [0 0 0 0] ------- [0:0 1:0 32 0] [8] 0 0
s 8.000000000 _0_ RTR  --- 0 XFXVanets 48 [0 0 0 0] ------- [0:255 -1:255 1 0] 
s 8.000000000 _1_ RTR  --- 0 XFXVanets 48 [0 0 0 0] ------- [1:255 -1:255 1 0] 
s 8.000000000 _2_ RTR  --- 0 XFXVanets 48 [0 0 0 0] ------- [2:255 -1:255 1 0] 
M 9.00000 0 (16.76, 21.15, 10.00), (250.00, 250.00), 10.00
s 9.000000000 _0_ AGT  --- 9 cbr 1000 [0 0 0 0] ------- [0:0 1:0 32 0] [9] 0 0
r 9.000000000 _0_ RTR  --- 9 cbr 1000 [0 0 0 0] ------- [0:0 1:0 32 0] [9] 0 0
s 9.000000000 _0_ RTR  --- 0 XFXVanets 48 [0 0 0 0] ------- [0:255 -1:255 1 0] 
s 9.000000000 _1_ RTR  --- 0 XFXVanets 48 [0 0 0 0] ------- [1:255 -1:255 1 0] 
s 9.000000000 _2_ RTR  --- 0 XFXVanets 48 [0 0 0 0] ------- [2:255 -1:255 1 0] 
s 10.000000000 _0_ AGT  --- 10 cbr 1000 [0 0 0 0] ------- [0:0 1:0 32 0] [10] 0 0
r 10.000000000 _0_ RTR  --- 10 cbr 1000 [0 0 0 0] ------- [0:0 1:0 32 0] [10] 0 0
s 10.000000000 _0_ RTR  --- 0 XFXVanets 48 [0 0 0 0] ------- [0:255 -1:255 1 0] 
s 10.000000000 _1_ RTR  --- 0 XFXVanets 48 [0 0 0 0] ------- [1:255 -1:255 1 0] 
s 10.000000000 _2_ RTR  --- 0 XFXVanets 48 [0 0 0 0] ------- [2:255 -1:255 1 0] 
s 11.000000000 _0_ AGT  --- 11 cbr 1000 [0 0 0 0] ------- [0:0 1:0 32 0] [11] 0 0
r 11.000000000 _0_ RTR  --- 11 cbr 1000 [0 0 0 0] ------- [0:0 1:0 32 0] [11] 0 0
s 11.000000000 _0_ RTR  --- 0 XFXVanets 48 [0 0 0 0] ------- [0:255 -1:255 1 0] 
s 11.000000000 _1_ RTR  --- 0 XFXVanets 48 [0 0 0 0] ------- [1:255 -1:255 1 0] 
s 11.000000000 _2_ RTR  --- 0 XFXVanets 48 [0 0 0 0] ------- [2:255 -1:255 1 0] 
s 12.000000000 _0_ AGT  --- 12 cbr 1000 [0 0 0 0] ------- [0:0 1:0 32 0] [12] 0 0
r 12.000000000 _0_ RTR  --- 12 cbr 1000 [0 0 0 0] ------- [0:0 1:0 32 0] [12] 0 0
s 12.000000000 _0_ RTR  --- 0 XFXVanets 48 [0 0 0 0] ------- [0:255 -1:255 1 0] 
s 12.000000000 _1_ RTR  --- 0 XFXVanets 48 [0 0 0 0] ------- [1:255 -1:255 1 0] 
s 12.000000000 _2_ RTR  --- 0 XFXVanets 48 [0 0 0 0] ------- [2:255 -1:255 1 0] 
s 13.000000000 _0_ AGT  --- 13 cbr 1000 [0 0 0 0] ------- [0:0 1:0 32 0] [13] 0 0
r 13.000000000 _0_ RTR  --- 13 cbr 1000 [0 0 0 0] ------- [0:0 1:0 32 0] [13] 0 0
s 13.000000000 _0_ RTR  --- 0 XFXVanets 48 [0 0 0 0] ------- [0:255 -1:255 1 0] 
s 13.000000000 _1_ RTR  --- 0 XFXVanets 48 [0 0 0 0] ------- [1:255 -1:255 1 0] 
s 13.000000000 _2_ RTR  --- 0 XFXVanets 48 [0 0 0 0] ------- [2:255 -1:255 1 0] 
s 14.000000000 _0_ AGT  --- 14 cbr 1000 [0 0 0 0] ------- [0:0 1:0 32 0] [14] 0 0
r 14.000000000 _0_ RTR  --- 14 cbr 1000 [0 0 0 0] ------- [0:0 1:0 32 0] [14] 0 0
s 14.000000000 _0_ RTR  --- 0 XFXVanets 48 [0 0 0 0] ------- [0:255 -1:255 1 0] 
s 14.000000000 _1_ RTR  --- 0 XFXVanets 48 [0 0 0 0] ------- [1:255 -1:255 1 0] 
s 14.000000000 _2_ RTR  --- 0 XFXVanets 48 [0 0 0 0] ------- [2:255 -1:255 1 0] 
s 15.000000000 _0_ AGT  --- 15 cbr 1000 [0 0 0 0] ------- [0:0 1:0 32 0] [15] 0 0
r 15.000000000 _0_ RTR  --- 15 cbr 1000 [0 0 0 0] ------- [0:0 1:0 32 0] [15] 0 0
s 15.000000000 _0_ RTR  --- 0 XFXVanets 48 [0 0 0 0] ------- [0:255 -1:255 1 0] 
s 15.000000000 _1_ RTR  --- 0 XFXVanets 48 [0 0 0 0] ------- [1:255 -1:255 1 0] 
s 15.000000000 _2_ RTR  --- 0 XFXVanets 48 [0 0 0 0] ------- [2:255 -1:255 1 0] 
s 16.000000000 _0_ AGT  --- 16 cbr 1000 [0 0 0 0] ------- [0:0 1:0 32 0] [16] 0 0
r 16.000000000 _0_ RTR  --- 16 cbr 1000 [0 0 0 0] ------- [0:0 1:0 32 0] [16] 0 0
s 16.000000000 _0_ RTR  --- 0 XFXVanets 48 [0 0 0 0] ------- [0:255 -1:255 1 0] 
s 16.000000000 _1_ RTR  --- 0 XFXVanets 48 [0 0 0 0] ------- [1:255 -1:255 1 0] 
s 16.000000000 _2_ RTR  --- 0 XFXVanets 48 [0 0 0 0] ------- [2:255 -1:255 1 0] 
s 17.000000000 _0_ AGT  --- 17 cbr 1000 [0 0 0 0] ------- [0:0 1:0 32 0] [17] 0 0
r 17.000000000 _0_ RTR  --- 17 cbr 1000 [0 0 0 0] ------- [0:0 1:0 32 0] [17] 0 0
s 17.000000000 _0_ RTR  --- 0 XFXVanets 48 [0 0 0 0] ------- [0:255 -1:255 1 0] 
s 17.000000000 _1_ RTR  --- 0 XFXVanets 48 [0 0 0 0] ------- [1:255 -1:255 1 0] 
s 17.000000000 _2_ RTR  --- 0 XFXVanets 48 [0 0 0 0] ------- [2:255 -1:255 1 0] 
s 18.000000000 _0_ AGT  --- 18 cbr 1000 [0 0 0 0] ------- [0:0 1:0 32 0] [18] 0 0
r 18.000000000 _0_ RTR  --- 18 cbr 1000 [0 0 0 0] ------- [0:0 1:0 32 0] [18] 0 0
s 18.000000000 _0_ RTR  --- 0 XFXVanets 48 [0 0 0 0] ------- [0:255 -1:255 1 0] 
s 18.000000000 _1_ RTR  --- 0 XFXVanets 48 [0 0 0 0] ------- [1:255 -1:255 1 0] 
s 18.000000000 _2_ RTR  --- 0 XFXVanets 48 [0 0 0 0] ------- [2:255 -1:255 1 0] 
s 19.000000000 _0_ AGT  --- 19 cbr 1000 [0 0 0 0] ------- [0:0 1:0 32 0] [19] 0 0
r 19.000000000 _0_ RTR  --- 19 cbr 1000 [0 0 0 0] ------- [0:0 1:0 32 0] [19] 0 0
s 19.000000000 _0_ RTR  --- 0 XFXVanets 48 [0 0 0 0] ------- [0:255 -1:255 1 0] 
s 19.000000000 _1_ RTR  --- 0 XFXVanets 48 [0 0 0 0] ------- [1:255 -1:255 1 0] 
s 19.000000000 _2_ RTR  --- 0 XFXVanets 48 [0 0 0 0] ------- [2:255 -1:255 1 0] 
s 20.000000000 _0_ AGT  --- 20 cbr 1000 [0 0 0 0] ------- [0:0 1:0 32 0] [20] 0 0
r 20.000000000 _0_ RTR  --- 20 cbr 1000 [0 0 0 0] ------- [0:0 1:0 32 0] [20] 0 0
s 20.000000000 _0_ RTR  --- 0 XFXVanets 48 [0 0 0 0] ------- [0:255 -1:255 1 0] 
s 20.000000000 _1_ RTR  --- 0 XFXVanets 48 [0 0 0 0] ------- [1:255 -1:255 1 0] 
s 20.000000000 _2_ RTR  --- 0 XFXVanets 48 [0 0 0 0] ------- [2:255 -1:255 1 0] 
s 21.000000000 _0_ AGT  --- 21 cbr 1000 [0 0 0 0] ------- [0:0 1:0 32 0] [21] 0 0
r 21.000000000 _0_ RTR  --- 21 cbr 1000 [0 0 0 0] ------- [0:0 1:0 32 0] [21] 0 0
s 21.000000000 _0_ RTR  --- 0 XFXVanets 48 [0 0 0 0] ------- [0:255 -1:255 1 0] 
s 21.000000000 _1_ RTR  --- 0 XFXVanets 48 [0 0 0 0] ------- [1:255 -1:255 1 0] 
s 21.000000000 _2_ RTR  --- 0 XFXVanets 48 [0 0 0 0] ------- [2:255 -1:255 1 0] 
s 22.000000000 _0_ AGT  --- 22 cbr 1000 [0 0 0 0] ------- [0:0 1:0 32 0] [22] 0 0
r 22.000000000 _0_ RTR  --- 22 cbr 1000 [0 0 0 0] ------- [0:0 1:0 32 0] [22] 0 0
s 22.000000000 _0_ RTR  --- 0 XFXVanets 48 [0 0 0 0] ------- [0:255 -1:255 1 0] 
s 22.000000000 _1_ RTR  --- 0 XFXVanets 48 [0 0 0 0] ------- [1:255 -1:255 1 0] 
s 22.000000000 _2_ RTR  --- 0 XFXVanets 48 [0 0 0 0] ------- [2:255 -1:255 1 0] 
s 23.000000000 _0_ AGT  --- 23 cbr 1000 [0 0 0 0] ------- [0:0 1:0 32 0] [23] 0 0
r 23.000000000 _0_ RTR  --- 23 cbr 1000 [0 0 0 0] ------- [0:0 1:0 32 0] [23] 0 0
s 23.000000000 _0_ RTR  --- 0 XFXVanets 48 [0 0 0 0] ------- [0:255 -1:255 1 0] 
s 23.000000000 _1_ RTR  --- 0 XFXVanets 48 [0 0 0 0] ------- [1:255 -1:255 1 0] 
s 23.000000000 _2_ RTR  --- 0 XFXVanets 48 [0 0 0 0] ------- [2:255 -1:255 1 0] 
s 24.000000000 _0_ AGT  --- 24 cbr 1000 [0 0 0 0] ------- [0:0 1:0 32 0] [24] 0 0
r 24.000000000 _0_ RTR  --- 24 cbr 1000 [0 0 0 0] ------- [0:0 1:0 32 0] [24] 0 0
s 24.000000000 _0_ RTR  --- 0 XFXVanets 48 [0 0 0 0] ------- [0:255 -1:255 1 0] 
s 24.000000000 _1_ RTR  --- 0 XFXVanets 48 [0 0 0 0] ------- [1:255 -1:255 1 0] 
s 24.000000000 _2_ RTR  --- 0 XFXVanets 48 [0 0 0 0] ------- [2:255 -1:255 1 0] 
s 25.000000000 _0_ AGT  --- 25 cbr 1000 [0 0 0 0] ------- [0:0 1:0 32 0] [25] 0 0
r 25.000000000 _0_ RTR  --- 25 cbr 1000 [0 0 0 0] ------- [0:0 1:0 32 0] [25] 0 0
s 25.000000000 _0_ RTR  --- 0 XFXVanets 48 [0 0 0 0] ------- [0:255 -1:255 1 0] 
s 25.000000000 _1_ RTR  --- 0 XFXVanets 48 [0 0 0 0] ------- [1:255 -1:255 1 0] 
s 25.000000000 _2_ RTR  --- 0 XFXVanets 48 [0 0 0 0] ------- [2:255 -1:255 1 0] 
s 26.000000000 _0_ AGT  --- 26 cbr 1000 [0 0 0 0] ------- [0:0 1:0 32 0] [26] 0 0
r 26.000000000 _0_ RTR  --- 26 cbr 1000 [0 0 0 0] ------- [0:0 1:0 32 0] [26] 0 0
s 26.000000000 _0_ RTR  --- 0 XFXVanets 48 [0 0 0 0] ------- [0:255 -1:255 1 0] 
s 26.000000000 _1_ RTR  --- 0 XFXVanets 48 [0 0 0 0] ------- [1:255 -1:255 1 0] 
s 26.000000000 _2_ RTR  --- 0 XFXVanets 48 [0 0 0 0] ------- [2:255 -1:255 1 0] 
s 27.000000000 _0_ AGT  --- 27 cbr 1000 [0 0 0 0] ------- [0:0 1:0 32 0] [27] 0 0
r 27.000000000 _0_ RTR  --- 27 cbr 1000 [0 0 0 0] ------- [0:0 1:0 32 0] [27] 0 0
s 27.000000000 _0_ RTR  --- 0 XFXVanets 48 [0 0 0 0] ------- [0:255 -1:255 1 0] 
s 27.000000000 _1_ RTR  --- 0 XFXVanets 48 [0 0 0 0] ------- [1:255 -1:255 1 0] 
s 27.000000000 _2_ RTR  --- 0 XFXVanets 48 [0 0 0 0] ------- [2:255 -1:255 1 0] 
s 28.000000000 _0_ AGT  --- 28 cbr 1000 [0 0 0 0] ------- [0:0 1:0 32 0] [28] 0 0
r 28.000000000 _0_ RTR  --- 28 cbr 1000 [0 0 0 0] ------- [0:0 1:0 32 0] [28] 0 0
s 28.000000000 _0_ RTR  --- 0 XFXVanets 48 [0 0 0 0] ------- [0:255 -1:255 1 0] 
s 28.000000000 _1_ RTR  --- 0 XFXVanets 48 [0 0 0 0] ------- [1:255 -1:255 1 0] 
s 28.000000000 _2_ RTR  --- 0 XFXVanets 48 [0 0 0 0] ------- [2:255 -1:255 1 0] 
s 29.000000000 _0_ AGT  --- 29 cbr 1000 [0 0 0 0] ------- [0:0 1:0 32 0] [29] 0 0
r 29.000000000 _0_ RTR  --- 29 cbr 1000 [0 0 0 0] ------- [0:0 1:0 32 0] [29] 0 0
s 29.000000000 _0_ RTR  --- 0 XFXVanets 48 [0 0 0 0] ------- [0:255 -1:255 1 0] 
s 29.000000000 _1_ RTR  --- 0 XFXVanets 48 [0 0 0 0] ------- [1:255 -1:255 1 0] 
s 29.000000000 _2_ RTR  --- 0 XFXVanets 48 [0 0 0 0] ------- [2:255 -1:255 1 0] 
s 30.000000000 _0_ AGT  --- 30 cbr 1000 [0 0 0 0] ------- [0:0 1:0 32 0] [30] 0 0
r 30.000000000 _0_ RTR  --- 30 cbr 1000 [0 0 0 0] ------- [0:0 1:0 32 0] [30] 0 0
s 30.000000000 _0_ RTR  --- 0 XFXVanets 48 [0 0 0 0] ------- [0:255 -1:255 1 0] 
s 30.000000000 _1_ RTR  --- 0 XFXVanets 48 [0 0 0 0] ------- [1:255 -1:255 1 0] 
s 30.000000000 _2_ RTR  --- 0 XFXVanets 48 [0 0 0 0] ------- [2:255 -1:255 1 0] 
s 31.000000000 _0_ AGT  --- 31 cbr 1000 [0 0 0 0] ------- [0:0 1:0 32 0] [31] 0 0
r 31.000000000 _0_ RTR  --- 31 cbr 1000 [0 0 0 0] ------- [0:0 1:0 32 0] [31] 0 0
s 31.000000000 _0_ RTR  --- 0 XFXVanets 48 [0 0 0 0] ------- [0:255 -1:255 1 0] 
s 31.000000000 _1_ RTR  --- 0 XFXVanets 48 [0 0 0 0] ------- [1:255 -1:255 1 0] 
s 31.000000000 _2_ RTR  --- 0 XFXVanets 48 [0 0 0 0] ------- [2:255 -1:255 1 0] 
s 32.000000000 _0_ AGT  --- 32 cbr 1000 [0 0 0 0] ------- [0:0 1:0 32 0] [32] 0 0
r 32.000000000 _0_ RTR  --- 32 cbr 1000 [0 0 0 0] ------- [0:0 1:0 32 0] [32] 0 0
s 32.000000000 _0_ RTR  --- 0 XFXVanets 48 [0 0 0 0] ------- [0:255 -1:255 1 0] 
s 32.000000000 _1_ RTR  --- 0 XFXVanets 48 [0 0 0 0] ------- [1:255 -1:255 1 0] 
s 32.000000000 _2_ RTR  --- 0 XFXVanets 48 [0 0 0 0] ------- [2:255 -1:255 1 0] 
s 33.000000000 _0_ AGT  --- 33 cbr 1000 [0 0 0 0] ------- [0:0 1:0 32 0] [33] 0 0
r 33.000000000 _0_ RTR  --- 33 cbr 1000 [0 0 0 0] ------- [0:0 1:0 32 0] [33] 0 0
s 33.000000000 _0_ RTR  --- 0 XFXVanets 48 [0 0 0 0] ------- [0:255 -1:255 1 0] 
s 33.000000000 _1_ RTR  --- 0 XFXVanets 48 [0 0 0 0] ------- [1:255 -1:255 1 0] 
s 33.000000000 _2_ RTR  --- 0 XFXVanets 48 [0 0 0 0] ------- [2:255 -1:255 1 0] 
s 34.000000000 _0_ AGT  --- 34 cbr 1000 [0 0 0 0] ------- [0:0 1:0 32 0] [34] 0 0
r 34.000000000 _0_ RTR  --- 34 cbr 1000 [0 0 0 0] ------- [0:0 1:0 32 0] [34] 0 0
s 34.000000000 _0_ RTR  --- 0 XFXVanets 48 [0 0 0 0] ------- [0:255 -1:255 1 0] 
s 34.000000000 _1_ RTR  --- 0 XFXVanets 48 [0 0 0 0] ------- [1:255 -1:255 1 0] 
s 34.000000000 _2_ RTR  --- 0 XFXVanets 48 [0 0 0 0] ------- [2:255 -1:255 1 0] 
s 35.000000000 _0_ AGT  --- 35 cbr 1000 [0 0 0 0] ------- [0:0 1:0 32 0] [35] 0 0
r 35.000000000 _0_ RTR  --- 35 cbr 1000 [0 0 0 0] ------- [0:0 1:0 32 0] [35] 0 0
s 35.000000000 _0_ RTR  --- 0 XFXVanets 48 [0 0 0 0] ------- [0:255 -1:255 1 0] 
s 35.000000000 _1_ RTR  --- 0 XFXVanets 48 [0 0 0 0] ------- [1:255 -1:255 1 0] 
s 35.000000000 _2_ RTR  --- 0 XFXVanets 48 [0 0 0 0] ------- [2:255 -1:255 1 0] 
s 36.000000000 _0_ AGT  --- 36 cbr 1000 [0 0 0 0] ------- [0:0 1:0 32 0] [36] 0 0
r 36.000000000 _0_ RTR  --- 36 cbr 1000 [0 0 0 0] ------- [0:0 1:0 32 0] [36] 0 0
s 36.000000000 _0_ RTR  --- 0 XFXVanets 48 [0 0 0 0] ------- [0:255 -1:255 1 0] 
s 36.000000000 _1_ RTR  --- 0 XFXVanets 48 [0 0 0 0] ------- [1:255 -1:255 1 0] 
s 36.000000000 _2_ RTR  --- 0 XFXVanets 48 [0 0 0 0] ------- [2:255 -1:255 1 0] 
r 36.000968015 _1_ RTR  --- 0 XFXVanets 48 [0 ffffffff 2 800] ------- [2:255 -1:255 1 0] 
r 36.001946029 _2_ RTR  --- 0 XFXVanets 48 [0 ffffffff 1 800] ------- [1:255 -1:255 1 0] 
s 37.000000000 _0_ AGT  --- 37 cbr 1000 [0 0 0 0] ------- [0:0 1:0 32 0] [37] 0 0
r 37.000000000 _0_ RTR  --- 37 cbr 1000 [0 0 0 0] ------- [0:0 1:0 32 0] [37] 0 0
s 37.000000000 _0_ RTR  --- 0 XFXVanets 48 [0 0 0 0] ------- [0:255 -1:255 1 0] 
s 37.000000000 _1_ RTR  --- 0 XFXVanets 48 [0 0 0 0] ------- [1:255 -1:255 1 0] 
s 37.000000000 _2_ RTR  --- 0 XFXVanets 48 [0 0 0 0] ------- [2:255 -1:255 1 0] 
r 37.001108000 _1_ RTR  --- 0 XFXVanets 48 [0 ffffffff 2 800] ------- [2:255 -1:255 1 0] 
r 37.002426000 _2_ RTR  --- 0 XFXVanets 48 [0 ffffffff 1 800] ------- [1:255 -1:255 1 0] 
s 38.000000000 _0_ AGT  --- 38 cbr 1000 [0 0 0 0] ------- [0:0 1:0 32 0] [38] 0 0
r 38.000000000 _0_ RTR  --- 38 cbr 1000 [0 0 0 0] ------- [0:0 1:0 32 0] [38] 0 0
s 38.000000000 _0_ RTR  --- 0 XFXVanets 48 [0 0 0 0] ------- [0:255 -1:255 1 0] 
s 38.000000000 _1_ RTR  --- 0 XFXVanets 48 [0 0 0 0] ------- [1:255 -1:255 1 0] 
s 38.000000000 _2_ RTR  --- 0 XFXVanets 48 [0 0 0 0] ------- [2:255 -1:255 1 0] 
r 38.001168000 _1_ RTR  --- 0 XFXVanets 48 [0 ffffffff 2 800] ------- [2:255 -1:255 1 0] 
r 38.002446000 _2_ RTR  --- 0 XFXVanets 48 [0 ffffffff 1 800] ------- [1:255 -1:255 1 0] 
s 39.000000000 _0_ AGT  --- 39 cbr 1000 [0 0 0 0] ------- [0:0 1:0 32 0] [39] 0 0
r 39.000000000 _0_ RTR  --- 39 cbr 1000 [0 0 0 0] ------- [0:0 1:0 32 0] [39] 0 0
s 39.000000000 _0_ RTR  --- 0 XFXVanets 48 [0 0 0 0] ------- [0:255 -1:255 1 0] 
s 39.000000000 _1_ RTR  --- 0 XFXVanets 48 [0 0 0 0] ------- [1:255 -1:255 1 0] 
s 39.000000000 _2_ RTR  --- 0 XFXVanets 48 [0 0 0 0] ------- [2:255 -1:255 1 0] 
r 39.001068000 _2_ RTR  --- 0 XFXVanets 48 [0 ffffffff 1 800] ------- [1:255 -1:255 1 0] 
r 39.002426000 _1_ RTR  --- 0 XFXVanets 48 [0 ffffffff 2 800] ------- [2:255 -1:255 1 0] 
s 40.000000000 _0_ AGT  --- 40 cbr 1000 [0 0 0 0] ------- [0:0 1:0 32 0] [40] 0 0
r 40.000000000 _0_ RTR  --- 40 cbr 1000 [0 0 0 0] ------- [0:0 1:0 32 0] [40] 0 0
s 40.000000000 _0_ RTR  --- 0 XFXVanets 48 [0 0 0 0] ------- [0:255 -1:255 1 0] 
s 40.000000000 _1_ RTR  --- 0 XFXVanets 48 [0 0 0 0] ------- [1:255 -1:255 1 0] 
s 40.000000000 _2_ RTR  --- 0 XFXVanets 48 [0 0 0 0] ------- [2:255 -1:255 1 0] 
r 40.001368000 _1_ RTR  --- 0 XFXVanets 48 [0 ffffffff 2 800] ------- [2:255 -1:255 1 0] 
r 40.002466000 _2_ RTR  --- 0 XFXVanets 48 [0 ffffffff 1 800] ------- [1:255 -1:255 1 0] 
s 41.000000000 _0_ AGT  --- 41 cbr 1000 [0 0 0 0] ------- [0:0 1:0 32 0] [41] 0 0
r 41.000000000 _0_ RTR  --- 41 cbr 1000 [0 0 0 0] ------- [0:0 1:0 32 0] [41] 0 0
s 41.000000000 _0_ RTR  --- 0 XFXVanets 48 [0 0 0 0] ------- [0:255 -1:255 1 0] 
s 41.000000000 _1_ RTR  --- 0 XFXVanets 48 [0 0 0 0] ------- [1:255 -1:255 1 0] 
s 41.000000000 _2_ RTR  --- 0 XFXVanets 48 [0 0 0 0] ------- [2:255 -1:255 1 0] 
r 41.001328000 _2_ RTR  --- 0 XFXVanets 48 [0 ffffffff 1 800] ------- [1:255 -1:255 1 0] 
r 41.001328023 _0_ RTR  --- 0 XFXVanets 48 [0 ffffffff 1 800] ------- [1:255 -1:255 1 0] 
s 41.001328023 _0_ RTR  --- 0 XFXVanets 1020 [0 0 0 0] ------- [0:255 1:255 32 0] 
s 41.001328023 _0_ RTR  --- 1 XFXVanets 1020 [0 0 0 0] ------- [0:255 1:255 32 0] 
D 41.001328023 _0_ IFQ  ARP 0 XFXVanets 1020 [0 0 0 800] ------- [0:255 1:255 32 0] 
s 41.001328023 _0_ RTR  --- 2 XFXVanets 1020 [0 0 0 0] ------- [0:255 1:255 32 0] 
D 41.001328023 _0_ IFQ  ARP 1 XFXVanets 1020 [0 0 0 800] ------- [0:255 1:255 32 0] 
s 41.001328023 _0_ RTR  --- 3 XFXVanets 1020 [0 0 0 0] ------- [0:255 1:255 32 0] 
D 41.001328023 _0_ IFQ  ARP 2 XFXVanets 1020 [0 0 0 800] ------- [0:255 1:255 32 0] 
D 41.001328023 _0_ IFQ  ARP 3 XFXVanets 1020 [0 0 0 800] ------- [0:255 1:255 32 0] 
s 41.001328023 _0_ RTR  --- 4 XFXVanets 1020 [0 0 0 0] ------- [0:255 1:255 32 0] 
s 41.001328023 _0_ RTR  --- 5 XFXVanets 1020 [0 0 0 0] ------- [0:255 1:255 32 0] 
D 41.001328023 _0_ IFQ  ARP 4 XFXVanets 1020 [0 0 0 800] ------- [0:255 1:255 32 0] 
s 41.001328023 _0_ RTR  --- 6 XFXVanets 1020 [0 0 0 0] ------- [0:255 1:255 32 0] 
D 41.001328023 _0_ IFQ  ARP 5 XFXVanets 1020 [0 0 0 800] ------- [0:255 1:255 32 0] 
s 41.001328023 _0_ RTR  --- 7 XFXVanets 1020 [0 0 0 0] ------- [0:255 1:255 32 0] 
D 41.001328023 _0_ IFQ  ARP 6 XFXVanets 1020 [0 0 0 800] ------- [0:255 1:255 32 0] 
D 41.001328023 _0_ IFQ  ARP 7 XFXVanets 1020 [0 0 0 800] ------- [0:255 1:255 32 0] 
s 41.001328023 _0_ RTR  --- 8 XFXVanets 1020 [0 0 0 0] ------- [0:255 1:255 32 0] 
s 41.001328023 _0_ RTR  --- 9 XFXVanets 1020 [0 0 0 0] ------- [0:255 1:255 32 0] 
D 41.001328023 _0_ IFQ  ARP 8 XFXVanets 1020 [0 0 0 800] ------- [0:255 1:255 32 0] 
s 41.001328023 _0_ RTR  --- 10 XFXVanets 1020 [0 0 0 0] ------- [0:255 1:255 32 0] 
D 41.001328023 _0_ IFQ  ARP 9 XFXVanets 1020 [0 0 0 800] ------- [0:255 1:255 32 0] 
s 41.001328023 _0_ RTR  --- 11 XFXVanets 1020 [0 0 0 0] ------- [0:255 1:255 32 0] 
D 41.001328023 _0_ IFQ  ARP 10 XFXVanets 1020 [0 0 0 800] ------- [0:255 1:255 32 0] 
D 41.001328023 _0_ IFQ  ARP 11 XFXVanets 1020 [0 0 0 800] ------- [0:255 1:255 32 0] 
s 41.001328023 _0_ RTR  --- 12 XFXVanets 1020 [0 0 0 0] ------- [0:255 1:255 32 0] 
s 41.001328023 _0_ RTR  --- 13 XFXVanets 1020 [0 0 0 0] ------- [0:255 1:255 32 0] 
D 41.001328023 _0_ IFQ  ARP 12 XFXVanets 1020 [0 0 0 800] ------- [0:255 1:255 32 0] 
s 41.001328023 _0_ RTR  --- 14 XFXVanets 1020 [0 0 0 0] ------- [0:255 1:255 32 0] 
D 41.001328023 _0_ IFQ  ARP 13 XFXVanets 1020 [0 0 0 800] ------- [0:255 1:255 32 0] 
s 41.001328023 _0_ RTR  --- 15 XFXVanets 1020 [0 0 0 0] ------- [0:255 1:255 32 0] 
D 41.001328023 _0_ IFQ  ARP 14 XFXVanets 1020 [0 0 0 800] ------- [0:255 1:255 32 0] 
D 41.001328023 _0_ IFQ  ARP 15 XFXVanets 1020 [0 0 0 800] ------- [0:255 1:255 32 0] 
s 41.001328023 _0_ RTR  --- 16 XFXVanets 1020 [0 0 0 0] ------- [0:255 1:255 32 0] 
s 41.001328023 _0_ RTR  --- 17 XFXVanets 1020 [0 0 0 0] ------- [0:255 1:255 32 0] 
D 41.001328023 _0_ IFQ  ARP 16 XFXVanets 1020 [0 0 0 800] ------- [0:255 1:255 32 0] 
s 41.001328023 _0_ RTR  --- 18 XFXVanets 1020 [0 0 0 0] ------- [0:255 1:255 32 0] 
D 41.001328023 _0_ IFQ  ARP 17 XFXVanets 1020 [0 0 0 800] ------- [0:255 1:255 32 0] 
s 41.001328023 _0_ RTR  --- 19 XFXVanets 1020 [0 0 0 0] ------- [0:255 1:255 32 0] 
D 41.001328023 _0_ IFQ  ARP 18 XFXVanets 1020 [0 0 0 800] ------- [0:255 1:255 32 0] 
D 41.001328023 _0_ IFQ  ARP 19 XFXVanets 1020 [0 0 0 800] ------- [0:255 1:255 32 0] 
s 41.001328023 _0_ RTR  --- 20 XFXVanets 1020 [0 0 0 0] ------- [0:255 1:255 32 0] 
s 41.001328023 _0_ RTR  --- 21 XFXVanets 1020 [0 0 0 0] ------- [0:255 1:255 32 0] 
D 41.001328023 _0_ IFQ  ARP 20 XFXVanets 1020 [0 0 0 800] ------- [0:255 1:255 32 0] 
s 41.001328023 _0_ RTR  --- 22 XFXVanets 1020 [0 0 0 0] ------- [0:255 1:255 32 0] 
D 41.001328023 _0_ IFQ  ARP 21 XFXVanets 1020 [0 0 0 800] ------- [0:255 1:255 32 0] 
s 41.001328023 _0_ RTR  --- 23 XFXVanets 1020 [0 0 0 0] ------- [0:255 1:255 32 0] 
D 41.001328023 _0_ IFQ  ARP 22 XFXVanets 1020 [0 0 0 800] ------- [0:255 1:255 32 0] 
D 41.001328023 _0_ IFQ  ARP 23 XFXVanets 1020 [0 0 0 800] ------- [0:255 1:255 32 0] 
s 41.001328023 _0_ RTR  --- 24 XFXVanets 1020 [0 0 0 0] ------- [0:255 1:255 32 0] 
s 41.001328023 _0_ RTR  --- 25 XFXVanets 1020 [0 0 0 0] ------- [0:255 1:255 32 0] 
D 41.001328023 _0_ IFQ  ARP 24 XFXVanets 1020 [0 0 0 800] ------- [0:255 1:255 32 0] 
s 41.001328023 _0_ RTR  --- 26 XFXVanets 1020 [0 0 0 0] ------- [0:255 1:255 32 0] 
D 41.001328023 _0_ IFQ  ARP 25 XFXVanets 1020 [0 0 0 800] ------- [0:255 1:255 32 0] 
s 41.001328023 _0_ RTR  --- 27 XFXVanets 1020 [0 0 0 0] ------- [0:255 1:255 32 0] 
D 41.001328023 _0_ IFQ  ARP 26 XFXVanets 1020 [0 0 0 800] ------- [0:255 1:255 32 0] 
D 41.001328023 _0_ IFQ  ARP 27 XFXVanets 1020 [0 0 0 800] ------- [0:255 1:255 32 0] 
s 41.001328023 _0_ RTR  --- 28 XFXVanets 1020 [0 0 0 0] ------- [0:255 1:255 32 0] 
s 41.001328023 _0_ RTR  --- 29 XFXVanets 1020 [0 0 0 0] ------- [0:255 1:255 32 0] 
D 41.001328023 _0_ IFQ  ARP 28 XFXVanets 1020 [0 0 0 800] ------- [0:255 1:255 32 0] 
s 41.001328023 _0_ RTR  --- 30 XFXVanets 1020 [0 0 0 0] ------- [0:255 1:255 32 0] 
D 41.001328023 _0_ IFQ  ARP 29 XFXVanets 1020 [0 0 0 800] ------- [0:255 1:255 32 0] 
s 41.001328023 _0_ RTR  --- 31 XFXVanets 1020 [0 0 0 0] ------- [0:255 1:255 32 0] 
D 41.001328023 _0_ IFQ  ARP 30 XFXVanets 1020 [0 0 0 800] ------- [0:255 1:255 32 0] 
D 41.001328023 _0_ IFQ  ARP 31 XFXVanets 1020 [0 0 0 800] ------- [0:255 1:255 32 0] 
s 41.001328023 _0_ RTR  --- 32 XFXVanets 1020 [0 0 0 0] ------- [0:255 1:255 32 0] 
s 41.001328023 _0_ RTR  --- 33 XFXVanets 1020 [0 0 0 0] ------- [0:255 1:255 32 0] 
D 41.001328023 _0_ IFQ  ARP 32 XFXVanets 1020 [0 0 0 800] ------- [0:255 1:255 32 0] 
s 41.001328023 _0_ RTR  --- 34 XFXVanets 1020 [0 0 0 0] ------- [0:255 1:255 32 0] 
D 41.001328023 _0_ IFQ  ARP 33 XFXVanets 1020 [0 0 0 800] ------- [0:255 1:255 32 0] 
s 41.001328023 _0_ RTR  --- 35 XFXVanets 1020 [0 0 0 0] ------- [0:255 1:255 32 0] 
D 41.001328023 _0_ IFQ  ARP 34 XFXVanets 1020 [0 0 0 800] ------- [0:255 1:255 32 0] 
D 41.001328023 _0_ IFQ  ARP 35 XFXVanets 1020 [0 0 0 800] ------- [0:255 1:255 32 0] 
s 41.001328023 _0_ RTR  --- 36 XFXVanets 1020 [0 0 0 0] ------- [0:255 1:255 32 0] 
s 41.001328023 _0_ RTR  --- 37 XFXVanets 1020 [0 0 0 0] ------- [0:255 1:255 32 0] 
D 41.001328023 _0_ IFQ  ARP 36 XFXVanets 1020 [0 0 0 800] ------- [0:255 1:255 32 0] 
s 41.001328023 _0_ RTR  --- 38 XFXVanets 1020 [0 0 0 0] ------- [0:255 1:255 32 0] 
D 41.001328023 _0_ IFQ  ARP 37 XFXVanets 1020 [0 0 0 800] ------- [0:255 1:255 32 0] 
s 41.001328023 _0_ RTR  --- 39 XFXVanets 1020 [0 0 0 0] ------- [0:255 1:255 32 0] 
D 41.001328023 _0_ IFQ  ARP 38 XFXVanets 1020 [0 0 0 800] ------- [0:255 1:255 32 0] 
D 41.001328023 _0_ IFQ  ARP 39 XFXVanets 1020 [0 0 0 800] ------- [0:255 1:255 32 0] 
s 41.001328023 _0_ RTR  --- 40 XFXVanets 1020 [0 0 0 0] ------- [0:255 1:255 32 0] 
s 41.001328023 _0_ RTR  --- 41 XFXVanets 1020 [0 0 0 0] ------- [0:255 1:255 32 0] 
D 41.001328023 _0_ IFQ  ARP 40 XFXVanets 1020 [0 0 0 800] ------- [0:255 1:255 32 0] 
r 41.002306045 _2_ RTR  --- 0 XFXVanets 48 [0 ffffffff 0 800] ------- [0:255 -1:255 1 0] 
r 41.002306045 _1_ RTR  --- 0 XFXVanets 48 [0 ffffffff 0 800] ------- [0:255 -1:255 1 0] 
r 41.003304045 _1_ RTR  --- 0 XFXVanets 48 [0 ffffffff 2 800] ------- [2:255 -1:255 1 0] 
r 41.003304067 _0_ RTR  --- 0 XFXVanets 48 [0 ffffffff 2 800] ------- [2:255 -1:255 1 0] 
r 41.018651313 _1_ RTR  --- 41 XFXVanets 1020 [13a 1 0 800] ------- [0:255 1:255 32 0] 
s 42.000000000 _0_ AGT  --- 42 cbr 1000 [0 0 0 0] ------- [0:0 1:0 32 0] [42] 0 0
r 42.000000000 _0_ RTR  --- 42 cbr 1000 [0 0 0 0] ------- [0:0 1:0 32 0] [42] 0 0
s 42.000000000 _0_ RTR  --- 0 XFXVanets 48 [0 0 0 0] ------- [0:255 -1:255 1 0] 
s 42.000000000 _1_ RTR  --- 0 XFXVanets 48 [0 0 0 0] ------- [1:255 -1:255 1 0] 
s 42.000000000 _2_ RTR  --- 0 XFXVanets 48 [0 0 0 0] ------- [2:255 -1:255 1 0] 
r 42.000988000 _2_ RTR  --- 0 XFXVanets 48 [0 ffffffff 1 800] ------- [1:255 -1:255 1 0] 
r 42.000988000 _0_ RTR  --- 0 XFXVanets 48 [0 ffffffff 1 800] ------- [1:255 -1:255 1 0] 
s 42.000988000 _0_ RTR  --- 42 XFXVanets 1020 [0 0 0 0] ------- [0:255 1:255 32 0] 
r 42.002106000 _2_ RTR  --- 0 XFXVanets 48 [0 ffffffff 0 800] ------- [0:255 -1:255 1 0] 
r 42.002106000 _1_ RTR  --- 0 XFXVanets 48 [0 ffffffff 0 800] ------- [0:255 -1:255 1 0] 
r 42.003224000 _0_ RTR  --- 0 XFXVanets 48 [0 ffffffff 2 800] ------- [2:255 -1:255 1 0] 
r 42.003224000 _1_ RTR  --- 0 XFXVanets 48 [0 ffffffff 2 800] ------- [2:255 -1:255 1 0] 
r 42.012754000 _1_ RTR  --- 42 XFXVanets 1020 [13a 1 0 800] ------- [0:255 1:255 32 0] 
s 43.000000000 _0_ AGT  --- 43 cbr 1000 [0 0 0 0] ------- [0:0 1:0 32 0] [43] 0 0
r 43.000000000 _0_ RTR  --- 43 cbr 1000 [0 0 0 0] ------- [0:0 1:0 32 0] [43] 0 0
s 43.000000000 _0_ RTR  --- 0 XFXVanets 48 [0 0 0 0] ------- [0:255 -1:255 1 0] 
s 43.000000000 _1_ RTR  --- 0 XFXVanets 48 [0 0 0 0] ------- [1:255 -1:255 1 0] 
s 43.000000000 _2_ RTR  --- 0 XFXVanets 48 [0 0 0 0] ------- [2:255 -1:255 1 0] 
r 43.002730000 _2_ RTR  --- 0 XFXVanets 48 [0 ffffffff 0 800] ------- [0:255 -1:255 1 0] 
r 43.002730000 _1_ RTR  --- 0 XFXVanets 48 [0 ffffffff 0 800] ------- [0:255 -1:255 1 0] 
s 44.000000000 _0_ AGT  --- 44 cbr 1000 [0 0 0 0] ------- [0:0 1:0 32 0] [44] 0 0
r 44.000000000 _0_ RTR  --- 44 cbr 1000 [0 0 0 0] ------- [0:0 1:0 32 0] [44] 0 0
s 44.000000000 _0_ RTR  --- 0 XFXVanets 48 [0 0 0 0] ------- [0:255 -1:255 1 0] 
s 44.000000000 _1_ RTR  --- 0 XFXVanets 48 [0 0 0 0] ------- [1:255 -1:255 1 0] 
s 44.000000000 _2_ RTR  --- 0 XFXVanets 48 [0 0 0 0] ------- [2:255 -1:255 1 0] 
r 44.001328000 _2_ RTR  --- 0 XFXVanets 48 [0 ffffffff 1 800] ------- [1:255 -1:255 1 0] 
r 44.001328000 _0_ RTR  --- 0 XFXVanets 48 [0 ffffffff 1 800] ------- [1:255 -1:255 1 0] 
s 44.001328000 _0_ RTR  --- 43 XFXVanets 1020 [0 0 0 0] ------- [0:255 1:255 32 0] 
s 44.001328000 _0_ RTR  --- 44 XFXVanets 1020 [0 0 0 0] ------- [0:255 1:255 32 0] 
r 44.002286000 _0_ RTR  --- 0 XFXVanets 48 [0 ffffffff 2 800] ------- [2:255 -1:255 1 0] 
r 44.002286000 _1_ RTR  --- 0 XFXVanets 48 [0 ffffffff 2 800] ------- [2:255 -1:255 1 0] 
r 44.003324000 _2_ RTR  --- 0 XFXVanets 48 [0 ffffffff 0 800] ------- [0:255 -1:255 1 0] 
r 44.003324000 _1_ RTR  --- 0 XFXVanets 48 [0 ffffffff 0 800] ------- [0:255 -1:255 1 0] 
r 44.012674000 _1_ RTR  --- 44 XFXVanets 1020 [13a 1 0 800] ------- [0:255 1:255 32 0] 
r 44.022378000 _1_ RTR  --- 43 XFXVanets 1020 [13a 1 0 800] ------- [0:255 1:255 32 0] 
s 45.000000000 _0_ AGT  --- 45 cbr 1000 [0 0 0 0] ------- [0:0 1:0 32 0] [45] 0 0
r 45.000000000 _0_ RTR  --- 45 cbr 1000 [0 0 0 0] ------- [0:0 1:0 32 0] [45] 0 0
s 45.000000000 _0_ RTR  --- 0 XFXVanets 48 [0 0 0 0] ------- [0:255 -1:255 1 0] 
s 45.000000000 _1_ RTR  --- 0 XFXVanets 48 [0 0 0 0] ------- [1:255 -1:255 1 0] 
s 45.000000000 _2_ RTR  --- 0 XFXVanets 48 [0 0 0 0] ------- [2:255 -1:255 1 0] 
r 45.000988000 _2_ RTR  --- 0 XFXVanets 48 [0 ffffffff 0 800] ------- [0:255 -1:255 1 0] 
r 45.000988000 _1_ RTR  --- 0 XFXVanets 48 [0 ffffffff 0 800] ------- [0:255 -1:255 1 0] 