s 0.000000000 _0_ RTR  --- 0 XFXVanets 44 [0 0 0 0] ------- [0:255 -1:255 1 0] 
s 0.000000000 _1_ RTR  --- 0 XFXVanets 44 [0 0 0 0] ------- [1:255 -1:255 1 0] 
s 1.000000000 _0_ RTR  --- 0 XFXVanets 44 [0 0 0 0] ------- [0:255 -1:255 1 0] 
s 1.000000000 _1_ RTR  --- 0 XFXVanets 44 [0 0 0 0] ------- [1:255 -1:255 1 0] 
s 2.000000000 _0_ RTR  --- 0 XFXVanets 44 [0 0 0 0] ------- [0:255 -1:255 1 0] 
s 2.000000000 _1_ RTR  --- 0 XFXVanets 44 [0 0 0 0] ------- [1:255 -1:255 1 0] 
s 3.000000000 _0_ RTR  --- 0 XFXVanets 44 [0 0 0 0] ------- [0:255 -1:255 1 0] 
s 3.000000000 _1_ RTR  --- 0 XFXVanets 44 [0 0 0 0] ------- [1:255 -1:255 1 0] 
s 4.000000000 _0_ RTR  --- 0 XFXVanets 44 [0 0 0 0] ------- [0:255 -1:255 1 0] 
s 4.000000000 _1_ RTR  --- 0 XFXVanets 44 [0 0 0 0] ------- [1:255 -1:255 1 0] 
M 5.00000 0 (5.00, 5.00, 0.00), (250.00, 250.00), 0.00
s 5.000000000 _0_ RTR  --- 0 XFXVanets 44 [0 0 0 0] ------- [0:255 -1:255 1 0] 
s 5.000000000 _1_ RTR  --- 0 XFXVanets 44 [0 0 0 0] ------- [1:255 -1:255 1 0] 
M 6.00000 1 (280.00, 180.00, 0.00), (200.00, 300.00), 0.00
s 6.000000000 _0_ RTR  --- 0 XFXVanets 44 [0 0 0 0] ------- [0:255 -1:255 1 0] 
s 6.000000000 _1_ RTR  --- 0 XFXVanets 44 [0 0 0 0] ------- [1:255 -1:255 1 0] 
s 7.000000000 _0_ RTR  --- 0 XFXVanets 44 [0 0 0 0] ------- [0:255 -1:255 1 0] 
s 7.000000000 _1_ RTR  --- 0 XFXVanets 44 [0 0 0 0] ------- [1:255 -1:255 1 0] 
s 8.000000000 _0_ RTR  --- 0 XFXVanets 44 [0 0 0 0] ------- [0:255 -1:255 1 0] 
s 8.000000000 _1_ RTR  --- 0 XFXVanets 44 [0 0 0 0] ------- [1:255 -1:255 1 0] 
s 9.000000000 _0_ RTR  --- 0 XFXVanets 44 [0 0 0 0] ------- [0:255 -1:255 1 0] 
s 9.000000000 _1_ RTR  --- 0 XFXVanets 44 [0 0 0 0] ------- [1:255 -1:255 1 0] 
s 10.000000000 _0_ RTR  --- 0 XFXVanets 44 [0 0 0 0] ------- [0:255 -1:255 1 0] 
s 10.000000000 _1_ RTR  --- 0 XFXVanets 44 [0 0 0 0] ------- [1:255 -1:255 1 0] 
s 11.000000000 _0_ RTR  --- 0 XFXVanets 44 [0 0 0 0] ------- [0:255 -1:255 1 0] 
s 11.000000000 _1_ RTR  --- 0 XFXVanets 44 [0 0 0 0] ------- [1:255 -1:255 1 0] 
s 12.000000000 _0_ RTR  --- 0 XFXVanets 44 [0 0 0 0] ------- [0:255 -1:255 1 0] 
s 12.000000000 _1_ RTR  --- 0 XFXVanets 44 [0 0 0 0] ------- [1:255 -1:255 1 0] 
s 13.000000000 _0_ RTR  --- 0 XFXVanets 44 [0 0 0 0] ------- [0:255 -1:255 1 0] 
s 13.000000000 _1_ RTR  --- 0 XFXVanets 44 [0 0 0 0] ------- [1:255 -1:255 1 0] 
s 14.000000000 _0_ RTR  --- 0 XFXVanets 44 [0 0 0 0] ------- [0:255 -1:255 1 0] 
s 14.000000000 _1_ RTR  --- 0 XFXVanets 44 [0 0 0 0] ------- [1:255 -1:255 1 0] 
s 15.000000000 _0_ RTR  --- 0 XFXVanets 44 [0 0 0 0] ------- [0:255 -1:255 1 0] 
s 15.000000000 _1_ RTR  --- 0 XFXVanets 44 [0 0 0 0] ------- [1:255 -1:255 1 0] 
s 16.000000000 _0_ RTR  --- 0 XFXVanets 44 [0 0 0 0] ------- [0:255 -1:255 1 0] 
s 16.000000000 _1_ RTR  --- 0 XFXVanets 44 [0 0 0 0] ------- [1:255 -1:255 1 0] 
s 17.000000000 _0_ RTR  --- 0 XFXVanets 44 [0 0 0 0] ------- [0:255 -1:255 1 0] 
s 17.000000000 _1_ RTR  --- 0 XFXVanets 44 [0 0 0 0] ------- [1:255 -1:255 1 0] 
s 18.000000000 _0_ RTR  --- 0 XFXVanets 44 [0 0 0 0] ------- [0:255 -1:255 1 0] 
s 18.000000000 _1_ RTR  --- 0 XFXVanets 44 [0 0 0 0] ------- [1:255 -1:255 1 0] 
s 19.000000000 _0_ RTR  --- 0 XFXVanets 44 [0 0 0 0] ------- [0:255 -1:255 1 0] 
s 19.000000000 _1_ RTR  --- 0 XFXVanets 44 [0 0 0 0] ------- [1:255 -1:255 1 0] 
s 20.000000000 _0_ RTR  --- 0 XFXVanets 44 [0 0 0 0] ------- [0:255 -1:255 1 0] 
s 20.000000000 _1_ RTR  --- 0 XFXVanets 44 [0 0 0 0] ------- [1:255 -1:255 1 0] 
s 21.000000000 _0_ RTR  --- 0 XFXVanets 44 [0 0 0 0] ------- [0:255 -1:255 1 0] 
s 21.000000000 _1_ RTR  --- 0 XFXVanets 44 [0 0 0 0] ------- [1:255 -1:255 1 0] 
s 22.000000000 _0_ RTR  --- 0 XFXVanets 44 [0 0 0 0] ------- [0:255 -1:255 1 0] 
s 22.000000000 _1_ RTR  --- 0 XFXVanets 44 [0 0 0 0] ------- [1:255 -1:255 1 0] 
s 23.000000000 _0_ RTR  --- 0 XFXVanets 44 [0 0 0 0] ------- [0:255 -1:255 1 0] 
s 23.000000000 _1_ RTR  --- 0 XFXVanets 44 [0 0 0 0] ------- [1:255 -1:255 1 0] 
s 24.000000000 _0_ RTR  --- 0 XFXVanets 44 [0 0 0 0] ------- [0:255 -1:255 1 0] 
s 24.000000000 _1_ RTR  --- 0 XFXVanets 44 [0 0 0 0] ------- [1:255 -1:255 1 0] 
s 25.000000000 _0_ RTR  --- 0 XFXVanets 44 [0 0 0 0] ------- [0:255 -1:255 1 0] 
s 25.000000000 _1_ RTR  --- 0 XFXVanets 44 [0 0 0 0] ------- [1:255 -1:255 1 0] 
s 26.000000000 _0_ RTR  --- 0 XFXVanets 44 [0 0 0 0] ------- [0:255 -1:255 1 0] 
s 26.000000000 _1_ RTR  --- 0 XFXVanets 44 [0 0 0 0] ------- [1:255 -1:255 1 0] 
s 27.000000000 _0_ RTR  --- 0 XFXVanets 44 [0 0 0 0] ------- [0:255 -1:255 1 0] 
s 27.000000000 _1_ RTR  --- 0 XFXVanets 44 [0 0 0 0] ------- [1:255 -1:255 1 0] 
s 28.000000000 _0_ RTR  --- 0 XFXVanets 44 [0 0 0 0] ------- [0:255 -1:255 1 0] 
s 28.000000000 _1_ RTR  --- 0 XFXVanets 44 [0 0 0 0] ------- [1:255 -1:255 1 0] 
s 29.000000000 _0_ RTR  --- 0 XFXVanets 44 [0 0 0 0] ------- [0:255 -1:255 1 0] 
s 29.000000000 _1_ RTR  --- 0 XFXVanets 44 [0 0 0 0] ------- [1:255 -1:255 1 0] 
s 30.000000000 _0_ RTR  --- 0 XFXVanets 44 [0 0 0 0] ------- [0:255 -1:255 1 0] 
s 30.000000000 _1_ RTR  --- 0 XFXVanets 44 [0 0 0 0] ------- [1:255 -1:255 1 0] 
s 31.000000000 _0_ RTR  --- 0 XFXVanets 44 [0 0 0 0] ------- [0:255 -1:255 1 0] 
s 31.000000000 _1_ RTR  --- 0 XFXVanets 44 [0 0 0 0] ------- [1:255 -1:255 1 0] 
s 32.000000000 _0_ RTR  --- 0 XFXVanets 44 [0 0 0 0] ------- [0:255 -1:255 1 0] 
s 32.000000000 _1_ RTR  --- 0 XFXVanets 44 [0 0 0 0] ------- [1:255 -1:255 1 0] 
s 33.000000000 _0_ RTR  --- 0 XFXVanets 44 [0 0 0 0] ------- [0:255 -1:255 1 0] 
s 33.000000000 _1_ RTR  --- 0 XFXVanets 44 [0 0 0 0] ------- [1:255 -1:255 1 0] 
s 34.000000000 _0_ RTR  --- 0 XFXVanets 44 [0 0 0 0] ------- [0:255 -1:255 1 0] 
s 34.000000000 _1_ RTR  --- 0 XFXVanets 44 [0 0 0 0] ------- [1:255 -1:255 1 0] 
s 35.000000000 _0_ RTR  --- 0 XFXVanets 44 [0 0 0 0] ------- [0:255 -1:255 1 0] 
s 35.000000000 _1_ RTR  --- 0 XFXVanets 44 [0 0 0 0] ------- [1:255 -1:255 1 0] 
s 36.000000000 _0_ RTR  --- 0 XFXVanets 44 [0 0 0 0] ------- [0:255 -1:255 1 0] 
s 36.000000000 _1_ RTR  --- 0 XFXVanets 44 [0 0 0 0] ------- [1:255 -1:255 1 0] 
s 37.000000000 _0_ RTR  --- 0 XFXVanets 44 [0 0 0 0] ------- [0:255 -1:255 1 0] 
s 37.000000000 _1_ RTR  --- 0 XFXVanets 44 [0 0 0 0] ------- [1:255 -1:255 1 0] 
s 38.000000000 _0_ RTR  --- 0 XFXVanets 44 [0 0 0 0] ------- [0:255 -1:255 1 0] 
s 38.000000000 _1_ RTR  --- 0 XFXVanets 44 [0 0 0 0] ------- [1:255 -1:255 1 0] 
s 39.000000000 _0_ RTR  --- 0 XFXVanets 44 [0 0 0 0] ------- [0:255 -1:255 1 0] 
s 39.000000000 _1_ RTR  --- 0 XFXVanets 44 [0 0 0 0] ------- [1:255 -1:255 1 0] 
s 40.000000000 _0_ RTR  --- 0 XFXVanets 44 [0 0 0 0] ------- [0:255 -1:255 1 0] 
s 40.000000000 _1_ RTR  --- 0 XFXVanets 44 [0 0 0 0] ------- [1:255 -1:255 1 0] 
s 41.000000000 _0_ RTR  --- 0 XFXVanets 44 [0 0 0 0] ------- [0:255 -1:255 1 0] 
s 41.000000000 _1_ RTR  --- 0 XFXVanets 44 [0 0 0 0] ------- [1:255 -1:255 1 0] 
s 42.000000000 _0_ RTR  --- 0 XFXVanets 44 [0 0 0 0] ------- [0:255 -1:255 1 0] 
s 42.000000000 _1_ RTR  --- 0 XFXVanets 44 [0 0 0 0] ------- [1:255 -1:255 1 0] 
s 43.000000000 _0_ RTR  --- 0 XFXVanets 44 [0 0 0 0] ------- [0:255 -1:255 1 0] 
s 43.000000000 _1_ RTR  --- 0 XFXVanets 44 [0 0 0 0] ------- [1:255 -1:255 1 0] 
s 44.000000000 _0_ RTR  --- 0 XFXVanets 44 [0 0 0 0] ------- [0:255 -1:255 1 0] 
s 44.000000000 _1_ RTR  --- 0 XFXVanets 44 [0 0 0 0] ------- [1:255 -1:255 1 0] 
s 45.000000000 _0_ RTR  --- 0 XFXVanets 44 [0 0 0 0] ------- [0:255 -1:255 1 0] 
s 45.000000000 _1_ RTR  --- 0 XFXVanets 44 [0 0 0 0] ------- [1:255 -1:255 1 0] 
s 46.000000000 _0_ RTR  --- 0 XFXVanets 44 [0 0 0 0] ------- [0:255 -1:255 1 0] 
s 46.000000000 _1_ RTR  --- 0 XFXVanets 44 [0 0 0 0] ------- [1:255 -1:255 1 0] 
s 47.000000000 _0_ RTR  --- 0 XFXVanets 44 [0 0 0 0] ------- [0:255 -1:255 1 0] 
s 47.000000000 _1_ RTR  --- 0 XFXVanets 44 [0 0 0 0] ------- [1:255 -1:255 1 0] 
s 48.000000000 _0_ RTR  --- 0 XFXVanets 44 [0 0 0 0] ------- [0:255 -1:255 1 0] 
s 48.000000000 _1_ RTR  --- 0 XFXVanets 44 [0 0 0 0] ------- [1:255 -1:255 1 0] 
s 49.000000000 _0_ RTR  --- 0 XFXVanets 44 [0 0 0 0] ------- [0:255 -1:255 1 0] 
s 49.000000000 _1_ RTR  --- 0 XFXVanets 44 [0 0 0 0] ------- [1:255 -1:255 1 0] 
s 50.000000000 _0_ RTR  --- 0 XFXVanets 44 [0 0 0 0] ------- [0:255 -1:255 1 0] 
s 50.000000000 _1_ RTR  --- 0 XFXVanets 44 [0 0 0 0] ------- [1:255 -1:255 1 0] 
s 51.000000000 _0_ RTR  --- 0 XFXVanets 44 [0 0 0 0] ------- [0:255 -1:255 1 0] 
s 51.000000000 _1_ RTR  --- 0 XFXVanets 44 [0 0 0 0] ------- [1:255 -1:255 1 0] 
s 52.000000000 _0_ RTR  --- 0 XFXVanets 44 [0 0 0 0] ------- [0:255 -1:255 1 0] 
s 52.000000000 _1_ RTR  --- 0 XFXVanets 44 [0 0 0 0] ------- [1:255 -1:255 1 0] 
s 53.000000000 _0_ RTR  --- 0 XFXVanets 44 [0 0 0 0] ------- [0:255 -1:255 1 0] 
s 53.000000000 _1_ RTR  --- 0 XFXVanets 44 [0 0 0 0] ------- [1:255 -1:255 1 0] 
s 54.000000000 _0_ RTR  --- 0 XFXVanets 44 [0 0 0 0] ------- [0:255 -1:255 1 0] 
s 54.000000000 _1_ RTR  --- 0 XFXVanets 44 [0 0 0 0] ------- [1:255 -1:255 1 0] 
s 55.000000000 _0_ RTR  --- 0 XFXVanets 44 [0 0 0 0] ------- [0:255 -1:255 1 0] 
s 55.000000000 _1_ RTR  --- 0 XFXVanets 44 [0 0 0 0] ------- [1:255 -1:255 1 0] 
s 56.000000000 _0_ RTR  --- 0 XFXVanets 44 [0 0 0 0] ------- [0:255 -1:255 1 0] 
s 56.000000000 _1_ RTR  --- 0 XFXVanets 44 [0 0 0 0] ------- [1:255 -1:255 1 0] 
s 57.000000000 _0_ RTR  --- 0 XFXVanets 44 [0 0 0 0] ------- [0:255 -1:255 1 0] 
s 57.000000000 _1_ RTR  --- 0 XFXVanets 44 [0 0 0 0] ------- [1:255 -1:255 1 0] 
s 58.000000000 _0_ RTR  --- 0 XFXVanets 44 [0 0 0 0] ------- [0:255 -1:255 1 0] 
s 58.000000000 _1_ RTR  --- 0 XFXVanets 44 [0 0 0 0] ------- [1:255 -1:255 1 0] 
s 59.000000000 _0_ RTR  --- 0 XFXVanets 44 [0 0 0 0] ------- [0:255 -1:255 1 0] 
s 59.000000000 _1_ RTR  --- 0 XFXVanets 44 [0 0 0 0] ------- [1:255 -1:255 1 0] 
s 60.000000000 _0_ RTR  --- 0 XFXVanets 44 [0 0 0 0] ------- [0:255 -1:255 1 0] 
s 60.000000000 _1_ RTR  --- 0 XFXVanets 44 [0 0 0 0] ------- [1:255 -1:255 1 0] 
s 61.000000000 _0_ RTR  --- 0 XFXVanets 44 [0 0 0 0] ------- [0:255 -1:255 1 0] 
s 61.000000000 _1_ RTR  --- 0 XFXVanets 44 [0 0 0 0] ------- [1:255 -1:255 1 0] 
s 62.000000000 _0_ RTR  --- 0 XFXVanets 44 [0 0 0 0] ------- [0:255 -1:255 1 0] 
s 62.000000000 _1_ RTR  --- 0 XFXVanets 44 [0 0 0 0] ------- [1:255 -1:255 1 0] 
s 63.000000000 _0_ RTR  --- 0 XFXVanets 44 [0 0 0 0] ------- [0:255 -1:255 1 0] 
s 63.000000000 _1_ RTR  --- 0 XFXVanets 44 [0 0 0 0] ------- [1:255 -1:255 1 0] 
s 64.000000000 _0_ RTR  --- 0 XFXVanets 44 [0 0 0 0] ------- [0:255 -1:255 1 0] 
s 64.000000000 _1_ RTR  --- 0 XFXVanets 44 [0 0 0 0] ------- [1:255 -1:255 1 0] 
s 65.000000000 _0_ RTR  --- 0 XFXVanets 44 [0 0 0 0] ------- [0:255 -1:255 1 0] 
s 65.000000000 _1_ RTR  --- 0 XFXVanets 44 [0 0 0 0] ------- [1:255 -1:255 1 0] 
s 66.000000000 _0_ RTR  --- 0 XFXVanets 44 [0 0 0 0] ------- [0:255 -1:255 1 0] 
s 66.000000000 _1_ RTR  --- 0 XFXVanets 44 [0 0 0 0] ------- [1:255 -1:255 1 0] 
s 67.000000000 _0_ RTR  --- 0 XFXVanets 44 [0 0 0 0] ------- [0:255 -1:255 1 0] 
s 67.000000000 _1_ RTR  --- 0 XFXVanets 44 [0 0 0 0] ------- [1:255 -1:255 1 0] 
s 68.000000000 _0_ RTR  --- 0 XFXVanets 44 [0 0 0 0] ------- [0:255 -1:255 1 0] 
s 68.000000000 _1_ RTR  --- 0 XFXVanets 44 [0 0 0 0] ------- [1:255 -1:255 1 0] 
s 69.000000000 _0_ RTR  --- 0 XFXVanets 44 [0 0 0 0] ------- [0:255 -1:255 1 0] 
s 69.000000000 _1_ RTR  --- 0 XFXVanets 44 [0 0 0 0] ------- [1:255 -1:255 1 0] 
s 70.000000000 _0_ RTR  --- 0 XFXVanets 44 [0 0 0 0] ------- [0:255 -1:255 1 0] 
s 70.000000000 _1_ RTR  --- 0 XFXVanets 44 [0 0 0 0] ------- [1:255 -1:255 1 0] 
s 71.000000000 _0_ RTR  --- 0 XFXVanets 44 [0 0 0 0] ------- [0:255 -1:255 1 0] 
s 71.000000000 _1_ RTR  --- 0 XFXVanets 44 [0 0 0 0] ------- [1:255 -1:255 1 0] 
s 72.000000000 _0_ RTR  --- 0 XFXVanets 44 [0 0 0 0] ------- [0:255 -1:255 1 0] 
s 72.000000000 _1_ RTR  --- 0 XFXVanets 44 [0 0 0 0] ------- [1:255 -1:255 1 0] 
s 73.000000000 _0_ RTR  --- 0 XFXVanets 44 [0 0 0 0] ------- [0:255 -1:255 1 0] 
s 73.000000000 _1_ RTR  --- 0 XFXVanets 44 [0 0 0 0] ------- [1:255 -1:255 1 0] 
s 74.000000000 _0_ RTR  --- 0 XFXVanets 44 [0 0 0 0] ------- [0:255 -1:255 1 0] 
s 74.000000000 _1_ RTR  --- 0 XFXVanets 44 [0 0 0 0] ------- [1:255 -1:255 1 0] 
s 75.000000000 _0_ RTR  --- 0 XFXVanets 44 [0 0 0 0] ------- [0:255 -1:255 1 0] 
s 75.000000000 _1_ RTR  --- 0 XFXVanets 44 [0 0 0 0] ------- [1:255 -1:255 1 0] 
s 76.000000000 _0_ RTR  --- 0 XFXVanets 44 [0 0 0 0] ------- [0:255 -1:255 1 0] 
s 76.000000000 _1_ RTR  --- 0 XFXVanets 44 [0 0 0 0] ------- [1:255 -1:255 1 0] 
s 77.000000000 _0_ RTR  --- 0 XFXVanets 44 [0 0 0 0] ------- [0:255 -1:255 1 0] 
s 77.000000000 _1_ RTR  --- 0 XFXVanets 44 [0 0 0 0] ------- [1:255 -1:255 1 0] 
s 78.000000000 _0_ RTR  --- 0 XFXVanets 44 [0 0 0 0] ------- [0:255 -1:255 1 0] 
s 78.000000000 _1_ RTR  --- 0 XFXVanets 44 [0 0 0 0] ------- [1:255 -1:255 1 0] 
s 79.000000000 _0_ RTR  --- 0 XFXVanets 44 [0 0 0 0] ------- [0:255 -1:255 1 0] 
s 79.000000000 _1_ RTR  --- 0 XFXVanets 44 [0 0 0 0] ------- [1:255 -1:255 1 0] 
s 80.000000000 _0_ RTR  --- 0 XFXVanets 44 [0 0 0 0] ------- [0:255 -1:255 1 0] 
s 80.000000000 _1_ RTR  --- 0 XFXVanets 44 [0 0 0 0] ------- [1:255 -1:255 1 0] 
s 81.000000000 _0_ RTR  --- 0 XFXVanets 44 [0 0 0 0] ------- [0:255 -1:255 1 0] 
s 81.000000000 _1_ RTR  --- 0 XFXVanets 44 [0 0 0 0] ------- [1:255 -1:255 1 0] 
s 82.000000000 _0_ RTR  --- 0 XFXVanets 44 [0 0 0 0] ------- [0:255 -1:255 1 0] 
s 82.000000000 _1_ RTR  --- 0 XFXVanets 44 [0 0 0 0] ------- [1:255 -1:255 1 0] 
s 83.000000000 _0_ RTR  --- 0 XFXVanets 44 [0 0 0 0] ------- [0:255 -1:255 1 0] 
s 83.000000000 _1_ RTR  --- 0 XFXVanets 44 [0 0 0 0] ------- [1:255 -1:255 1 0] 
s 84.000000000 _0_ RTR  --- 0 XFXVanets 44 [0 0 0 0] ------- [0:255 -1:255 1 0] 
s 84.000000000 _1_ RTR  --- 0 XFXVanets 44 [0 0 0 0] ------- [1:255 -1:255 1 0] 
s 85.000000000 _0_ RTR  --- 0 XFXVanets 44 [0 0 0 0] ------- [0:255 -1:255 1 0] 
s 85.000000000 _1_ RTR  --- 0 XFXVanets 44 [0 0 0 0] ------- [1:255 -1:255 1 0] 
s 86.000000000 _0_ RTR  --- 0 XFXVanets 44 [0 0 0 0] ------- [0:255 -1:255 1 0] 
s 86.000000000 _1_ RTR  --- 0 XFXVanets 44 [0 0 0 0] ------- [1:255 -1:255 1 0] 
s 87.000000000 _0_ RTR  --- 0 XFXVanets 44 [0 0 0 0] ------- [0:255 -1:255 1 0] 
s 87.000000000 _1_ RTR  --- 0 XFXVanets 44 [0 0 0 0] ------- [1:255 -1:255 1 0] 
s 88.000000000 _0_ RTR  --- 0 XFXVanets 44 [0 0 0 0] ------- [0:255 -1:255 1 0] 
s 88.000000000 _1_ RTR  --- 0 XFXVanets 44 [0 0 0 0] ------- [1:255 -1:255 1 0] 
s 89.000000000 _0_ RTR  --- 0 XFXVanets 44 [0 0 0 0] ------- [0:255 -1:255 1 0] 
s 89.000000000 _1_ RTR  --- 0 XFXVanets 44 [0 0 0 0] ------- [1:255 -1:255 1 0] 
s 90.000000000 _0_ RTR  --- 0 XFXVanets 44 [0 0 0 0] ------- [0:255 -1:255 1 0] 
s 90.000000000 _1_ RTR  --- 0 XFXVanets 44 [0 0 0 0] ------- [1:255 -1:255 1 0] 
s 91.000000000 _0_ RTR  --- 0 XFXVanets 44 [0 0 0 0] ------- [0:255 -1:255 1 0] 
s 91.000000000 _1_ RTR  --- 0 XFXVanets 44 [0 0 0 0] ------- [1:255 -1:255 1 0] 
s 92.000000000 _0_ RTR  --- 0 XFXVanets 44 [0 0 0 0] ------- [0:255 -1:255 1 0] 
s 92.000000000 _1_ RTR  --- 0 XFXVanets 44 [0 0 0 0] ------- [1:255 -1:255 1 0] 
s 93.000000000 _0_ RTR  --- 0 XFXVanets 44 [0 0 0 0] ------- [0:255 -1:255 1 0] 
s 93.000000000 _1_ RTR  --- 0 XFXVanets 44 [0 0 0 0] ------- [1:255 -1:255 1 0] 
s 94.000000000 _0_ RTR  --- 0 XFXVanets 44 [0 0 0 0] ------- [0:255 -1:255 1 0] 
s 94.000000000 _1_ RTR  --- 0 XFXVanets 44 [0 0 0 0] ------- [1:255 -1:255 1 0] 
s 95.000000000 _0_ RTR  --- 0 XFXVanets 44 [0 0 0 0] ------- [0:255 -1:255 1 0] 
s 95.000000000 _1_ RTR  --- 0 XFXVanets 44 [0 0 0 0] ------- [1:255 -1:255 1 0] 
s 96.000000000 _0_ RTR  --- 0 XFXVanets 44 [0 0 0 0] ------- [0:255 -1:255 1 0] 
s 96.000000000 _1_ RTR  --- 0 XFXVanets 44 [0 0 0 0] ------- [1:255 -1:255 1 0] 
s 97.000000000 _0_ RTR  --- 0 XFXVanets 44 [0 0 0 0] ------- [0:255 -1:255 1 0] 
s 97.000000000 _1_ RTR  --- 0 XFXVanets 44 [0 0 0 0] ------- [1:255 -1:255 1 0] 
s 98.000000000 _0_ RTR  --- 0 XFXVanets 44 [0 0 0 0] ------- [0:255 -1:255 1 0] 
s 98.000000000 _1_ RTR  --- 0 XFXVanets 44 [0 0 0 0] ------- [1:255 -1:255 1 0] 
s 99.000000000 _0_ RTR  --- 0 XFXVanets 44 [0 0 0 0] ------- [0:255 -1:255 1 0] 
s 99.000000000 _1_ RTR  --- 0 XFXVanets 44 [0 0 0 0] ------- [1:255 -1:255 1 0] 
