V -t * -v 1.0a5 -a 0
W -t * -x 500 -y 400
A -t * -n 1 -p 0 -o 0xffffffff -c 31 -a 1
A -t * -h 1 -m 2147483647 -s 0
+ -t 0.000000000 -s 0 -d -1 -p XFXVanets -e 44 -c 2 -a 0 -i 0 -k RTR 
- -t 0.000000000 -s 0 -d -1 -p XFXVanets -e 44 -c 2 -a 0 -i 0 -k RTR
h -t 0.000000000 -s 0 -d -1 -p XFXVanets -e 44 -c 2 -a 0 -i 0 -k RTR
+ -t 0.000000000 -s 1 -d -1 -p XFXVanets -e 44 -c 2 -a 0 -i 0 -k RTR 
- -t 0.000000000 -s 1 -d -1 -p XFXVanets -e 44 -c 2 -a 0 -i 0 -k RTR
h -t 0.000000000 -s 1 -d -1 -p XFXVanets -e 44 -c 2 -a 0 -i 0 -k RTR
r -t 0.000957087 -s 1 -d -1 -p XFXVanets -e 44 -c 2 -a 0 -i 0 -k RTR
r -t 0.002344173 -s 0 -d -1 -p XFXVanets -e 44 -c 2 -a 0 -i 0 -k RTR
+ -t 1.000000000 -s 0 -d -1 -p tcp -e 40 -c 2 -a 0 -i 0 -k AGT 
- -t 1.000000000 -s 0 -d -1 -p tcp -e 40 -c 2 -a 0 -i 0 -k AGT
h -t 1.000000000 -s 0 -d -1 -p tcp -e 40 -c 2 -a 0 -i 0 -k AGT
+ -t 1.000000000 -s 0 -d -1 -p XFXVanets -e 44 -c 2 -a 0 -i 0 -k RTR 
- -t 1.000000000 -s 0 -d -1 -p XFXVanets -e 44 -c 2 -a 0 -i 0 -k RTR
h -t 1.000000000 -s 0 -d -1 -p XFXVanets -e 44 -c 2 -a 0 -i 0 -k RTR
+ -t 1.000000000 -s 1 -d -1 -p XFXVanets -e 44 -c 2 -a 0 -i 0 -k RTR 
- -t 1.000000000 -s 1 -d -1 -p XFXVanets -e 44 -c 2 -a 0 -i 0 -k RTR
h -t 1.000000000 -s 1 -d -1 -p XFXVanets -e 44 -c 2 -a 0 -i 0 -k RTR
r -t 1.000917087 -s 1 -d -1 -p XFXVanets -e 44 -c 2 -a 0 -i 0 -k RTR
r -t 1.001944173 -s 0 -d -1 -p XFXVanets -e 44 -c 2 -a 0 -i 0 -k RTR
+ -t 2.000000000 -s 0 -d -1 -p XFXVanets -e 44 -c 2 -a 0 -i 0 -k RTR 
- -t 2.000000000 -s 0 -d -1 -p XFXVanets -e 44 -c 2 -a 0 -i 0 -k RTR
h -t 2.000000000 -s 0 -d -1 -p XFXVanets -e 44 -c 2 -a 0 -i 0 -k RTR
+ -t 2.000000000 -s 1 -d -1 -p XFXVanets -e 44 -c 2 -a 0 -i 0 -k RTR 
- -t 2.000000000 -s 1 -d -1 -p XFXVanets -e 44 -c 2 -a 0 -i 0 -k RTR
h -t 2.000000000 -s 1 -d -1 -p XFXVanets -e 44 -c 2 -a 0 -i 0 -k RTR
r -t 2.001177087 -s 0 -d -1 -p XFXVanets -e 44 -c 2 -a 0 -i 0 -k RTR
r -t 2.002144173 -s 1 -d -1 -p XFXVanets -e 44 -c 2 -a 0 -i 0 -k RTR
+ -t 3.000000000 -s 0 -d -1 -p XFXVanets -e 44 -c 2 -a 0 -i 0 -k RTR 
- -t 3.000000000 -s 0 -d -1 -p XFXVanets -e 44 -c 2 -a 0 -i 0 -k RTR
h -t 3.000000000 -s 0 -d -1 -p XFXVanets -e 44 -c 2 -a 0 -i 0 -k RTR
+ -t 3.000000000 -s 1 -d -1 -p XFXVanets -e 44 -c 2 -a 0 -i 0 -k RTR 
- -t 3.000000000 -s 1 -d -1 -p XFXVanets -e 44 -c 2 -a 0 -i 0 -k RTR
h -t 3.000000000 -s 1 -d -1 -p XFXVanets -e 44 -c 2 -a 0 -i 0 -k RTR
r -t 3.001077087 -s 0 -d -1 -p XFXVanets -e 44 -c 2 -a 0 -i 0 -k RTR
r -t 3.002324173 -s 1 -d -1 -p XFXVanets -e 44 -c 2 -a 0 -i 0 -k RTR
+ -t 4.000000000 -s 0 -d -1 -p tcp -e 40 -c 2 -a 0 -i 1 -k AGT 
- -t 4.000000000 -s 0 -d -1 -p tcp -e 40 -c 2 -a 0 -i 1 -k AGT
h -t 4.000000000 -s 0 -d -1 -p tcp -e 40 -c 2 -a 0 -i 1 -k AGT
+ -t 4.000000000 -s 0 -d -1 -p XFXVanets -e 44 -c 2 -a 0 -i 0 -k RTR 
- -t 4.000000000 -s 0 -d -1 -p XFXVanets -e 44 -c 2 -a 0 -i 0 -k RTR
h -t 4.000000000 -s 0 -d -1 -p XFXVanets -e 44 -c 2 -a 0 -i 0 -k RTR
+ -t 4.000000000 -s 1 -d -1 -p XFXVanets -e 44 -c 2 -a 0 -i 0 -k RTR 
- -t 4.000000000 -s 1 -d -1 -p XFXVanets -e 44 -c 2 -a 0 -i 0 -k RTR
h -t 4.000000000 -s 1 -d -1 -p XFXVanets -e 44 -c 2 -a 0 -i 0 -k RTR
r -t 4.001077087 -s 1 -d -1 -p XFXVanets -e 44 -c 2 -a 0 -i 0 -k RTR
r -t 4.002264173 -s 0 -d -1 -p XFXVanets -e 44 -c 2 -a 0 -i 0 -k RTR
+ -t 5.000000000 -s 0 -d -1 -p XFXVanets -e 44 -c 2 -a 0 -i 0 -k RTR 
- -t 5.000000000 -s 0 -d -1 -p XFXVanets -e 44 -c 2 -a 0 -i 0 -k RTR
h -t 5.000000000 -s 0 -d -1 -p XFXVanets -e 44 -c 2 -a 0 -i 0 -k RTR
+ -t 5.000000000 -s 1 -d -1 -p XFXVanets -e 44 -c 2 -a 0 -i 0 -k RTR 
- -t 5.000000000 -s 1 -d -1 -p XFXVanets -e 44 -c 2 -a 0 -i 0 -k RTR
h -t 5.000000000 -s 1 -d -1 -p XFXVanets -e 44 -c 2 -a 0 -i 0 -k RTR
r -t 5.001117087 -s 1 -d -1 -p XFXVanets -e 44 -c 2 -a 0 -i 0 -k RTR
r -t 5.002004173 -s 0 -d -1 -p XFXVanets -e 44 -c 2 -a 0 -i 0 -k RTR
+ -t 6.000000000 -s 0 -d -1 -p XFXVanets -e 44 -c 2 -a 0 -i 0 -k RTR 
- -t 6.000000000 -s 0 -d -1 -p XFXVanets -e 44 -c 2 -a 0 -i 0 -k RTR
h -t 6.000000000 -s 0 -d -1 -p XFXVanets -e 44 -c 2 -a 0 -i 0 -k RTR
+ -t 6.000000000 -s 1 -d -1 -p XFXVanets -e 44 -c 2 -a 0 -i 0 -k RTR 
- -t 6.000000000 -s 1 -d -1 -p XFXVanets -e 44 -c 2 -a 0 -i 0 -k RTR
h -t 6.000000000 -s 1 -d -1 -p XFXVanets -e 44 -c 2 -a 0 -i 0 -k RTR
r -t 6.001097087 -s 0 -d -1 -p XFXVanets -e 44 -c 2 -a 0 -i 0 -k RTR
r -t 6.002224173 -s 1 -d -1 -p XFXVanets -e 44 -c 2 -a 0 -i 0 -k RTR
+ -t 7.000000000 -s 0 -d -1 -p XFXVanets -e 44 -c 2 -a 0 -i 0 -k RTR 
- -t 7.000000000 -s 0 -d -1 -p XFXVanets -e 44 -c 2 -a 0 -i 0 -k RTR
h -t 7.000000000 -s 0 -d -1 -p XFXVanets -e 44 -c 2 -a 0 -i 0 -k RTR
+ -t 7.000000000 -s 1 -d -1 -p XFXVanets -e 44 -c 2 -a 0 -i 0 -k RTR 
- -t 7.000000000 -s 1 -d -1 -p XFXVanets -e 44 -c 2 -a 0 -i 0 -k RTR
h -t 7.000000000 -s 1 -d -1 -p XFXVanets -e 44 -c 2 -a 0 -i 0 -k RTR
r -t 7.001277087 -s 0 -d -1 -p XFXVanets -e 44 -c 2 -a 0 -i 0 -k RTR
r -t 7.002324173 -s 1 -d -1 -p XFXVanets -e 44 -c 2 -a 0 -i 0 -k RTR
+ -t 8.000000000 -s 0 -d -1 -p XFXVanets -e 44 -c 2 -a 0 -i 0 -k RTR 
- -t 8.000000000 -s 0 -d -1 -p XFXVanets -e 44 -c 2 -a 0 -i 0 -k RTR
h -t 8.000000000 -s 0 -d -1 -p XFXVanets -e 44 -c 2 -a 0 -i 0 -k RTR
+ -t 8.000000000 -s 1 -d -1 -p XFXVanets -e 44 -c 2 -a 0 -i 0 -k RTR 
- -t 8.000000000 -s 1 -d -1 -p XFXVanets -e 44 -c 2 -a 0 -i 0 -k RTR
h -t 8.000000000 -s 1 -d -1 -p XFXVanets -e 44 -c 2 -a 0 -i 0 -k RTR
r -t 8.001057087 -s 0 -d -1 -p XFXVanets -e 44 -c 2 -a 0 -i 0 -k RTR
r -t 8.002144173 -s 1 -d -1 -p XFXVanets -e 44 -c 2 -a 0 -i 0 -k RTR
+ -t 9.000000000 -s 0 -d -1 -p XFXVanets -e 44 -c 2 -a 0 -i 0 -k RTR 
- -t 9.000000000 -s 0 -d -1 -p XFXVanets -e 44 -c 2 -a 0 -i 0 -k RTR
h -t 9.000000000 -s 0 -d -1 -p XFXVanets -e 44 -c 2 -a 0 -i 0 -k RTR
+ -t 9.000000000 -s 1 -d -1 -p XFXVanets -e 44 -c 2 -a 0 -i 0 -k RTR 
- -t 9.000000000 -s 1 -d -1 -p XFXVanets -e 44 -c 2 -a 0 -i 0 -k RTR
h -t 9.000000000 -s 1 -d -1 -p XFXVanets -e 44 -c 2 -a 0 -i 0 -k RTR
r -t 9.001017087 -s 0 -d -1 -p XFXVanets -e 44 -c 2 -a 0 -i 0 -k RTR
r -t 9.001984173 -s 1 -d -1 -p XFXVanets -e 44 -c 2 -a 0 -i 0 -k RTR
n -t 10.000000 -s 0 -x 5.000000 -y 5.000000 -U 7.071068 -V 7.071068 -T 34.648232
+ -t 10.000000000 -s 0 -d -1 -p tcp -e 40 -c 2 -a 0 -i 2 -k AGT 
- -t 10.000000000 -s 0 -d -1 -p tcp -e 40 -c 2 -a 0 -i 2 -k AGT
h -t 10.000000000 -s 0 -d -1 -p tcp -e 40 -c 2 -a 0 -i 2 -k AGT
+ -t 10.000000000 -s 0 -d -1 -p XFXVanets -e 44 -c 2 -a 0 -i 0 -k RTR 
- -t 10.000000000 -s 0 -d -1 -p XFXVanets -e 44 -c 2 -a 0 -i 0 -k RTR
h -t 10.000000000 -s 0 -d -1 -p XFXVanets -e 44 -c 2 -a 0 -i 0 -k RTR
+ -t 10.000000000 -s 1 -d -1 -p XFXVanets -e 44 -c 2 -a 0 -i 0 -k RTR 
- -t 10.000000000 -s 1 -d -1 -p XFXVanets -e 44 -c 2 -a 0 -i 0 -k RTR
h -t 10.000000000 -s 1 -d -1 -p XFXVanets -e 44 -c 2 -a 0 -i 0 -k RTR
r -t 10.001117087 -s 1 -d -1 -p XFXVanets -e 44 -c 2 -a 0 -i 0 -k RTR
r -t 10.002364173 -s 0 -d -1 -p XFXVanets -e 44 -c 2 -a 0 -i 0 -k RTR
+ -t 11.000000000 -s 0 -d -1 -p XFXVanets -e 44 -c 2 -a 0 -i 0 -k RTR 
- -t 11.000000000 -s 0 -d -1 -p XFXVanets -e 44 -c 2 -a 0 -i 0 -k RTR
h -t 11.000000000 -s 0 -d -1 -p XFXVanets -e 44 -c 2 -a 0 -i 0 -k RTR
+ -t 11.000000000 -s 1 -d -1 -p XFXVanets -e 44 -c 2 -a 0 -i 0 -k RTR 
- -t 11.000000000 -s 1 -d -1 -p XFXVanets -e 44 -c 2 -a 0 -i 0 -k RTR
h -t 11.000000000 -s 1 -d -1 -p XFXVanets -e 44 -c 2 -a 0 -i 0 -k RTR
r -t 11.001257054 -s 1 -d -1 -p XFXVanets -e 44 -c 2 -a 0 -i 0 -k RTR
r -t 11.002284108 -s 0 -d -1 -p XFXVanets -e 44 -c 2 -a 0 -i 0 -k RTR
+ -t 12.000000000 -s 0 -d -1 -p XFXVanets -e 44 -c 2 -a 0 -i 0 -k RTR 
- -t 12.000000000 -s 0 -d -1 -p XFXVanets -e 44 -c 2 -a 0 -i 0 -k RTR
h -t 12.000000000 -s 0 -d -1 -p XFXVanets -e 44 -c 2 -a 0 -i 0 -k RTR
+ -t 12.000000000 -s 1 -d -1 -p XFXVanets -e 44 -c 2 -a 0 -i 0 -k RTR 
- -t 12.000000000 -s 1 -d -1 -p XFXVanets -e 44 -c 2 -a 0 -i 0 -k RTR
h -t 12.000000000 -s 1 -d -1 -p XFXVanets -e 44 -c 2 -a 0 -i 0 -k RTR
r -t 12.001197022 -s 1 -d -1 -p XFXVanets -e 44 -c 2 -a 0 -i 0 -k RTR
r -t 12.002264043 -s 0 -d -1 -p XFXVanets -e 44 -c 2 -a 0 -i 0 -k RTR
+ -t 13.000000000 -s 0 -d -1 -p XFXVanets -e 44 -c 2 -a 0 -i 0 -k RTR 
- -t 13.000000000 -s 0 -d -1 -p XFXVanets -e 44 -c 2 -a 0 -i 0 -k RTR
h -t 13.000000000 -s 0 -d -1 -p XFXVanets -e 44 -c 2 -a 0 -i 0 -k RTR
+ -t 13.000000000 -s 1 -d -1 -p XFXVanets -e 44 -c 2 -a 0 -i 0 -k RTR 
- -t 13.000000000 -s 1 -d -1 -p XFXVanets -e 44 -c 2 -a 0 -i 0 -k RTR
h -t 13.000000000 -s 1 -d -1 -p XFXVanets -e 44 -c 2 -a 0 -i 0 -k RTR
r -t 13.001076989 -s 0 -d -1 -p XFXVanets -e 44 -c 2 -a 0 -i 0 -k RTR
r -t 13.002103978 -s 1 -d -1 -p XFXVanets -e 44 -c 2 -a 0 -i 0 -k RTR
+ -t 14.000000000 -s 0 -d -1 -p XFXVanets -e 44 -c 2 -a 0 -i 0 -k RTR 
- -t 14.000000000 -s 0 -d -1 -p XFXVanets -e 44 -c 2 -a 0 -i 0 -k RTR
h -t 14.000000000 -s 0 -d -1 -p XFXVanets -e 44 -c 2 -a 0 -i 0 -k RTR
+ -t 14.000000000 -s 1 -d -1 -p XFXVanets -e 44 -c 2 -a 0 -i 0 -k RTR 
- -t 14.000000000 -s 1 -d -1 -p XFXVanets -e 44 -c 2 -a 0 -i 0 -k RTR
h -t 14.000000000 -s 1 -d -1 -p XFXVanets -e 44 -c 2 -a 0 -i 0 -k RTR
r -t 14.000916957 -s 0 -d -1 -p XFXVanets -e 44 -c 2 -a 0 -i 0 -k RTR
r -t 14.002083914 -s 1 -d -1 -p XFXVanets -e 44 -c 2 -a 0 -i 0 -k RTR
n -t 15.000000 -s 1 -x 280.000000 -y 180.000000 -U -5.547002 -V 8.320503 -T 14.422205
+ -t 15.000000000 -s 0 -d -1 -p XFXVanets -e 44 -c 2 -a 0 -i 0 -k RTR 
- -t 15.000000000 -s 0 -d -1 -p XFXVanets -e 44 -c 2 -a 0 -i 0 -k RTR
h -t 15.000000000 -s 0 -d -1 -p XFXVanets -e 44 -c 2 -a 0 -i 0 -k RTR
+ -t 15.000000000 -s 1 -d -1 -p XFXVanets -e 44 -c 2 -a 0 -i 0 -k RTR 
- -t 15.000000000 -s 1 -d -1 -p XFXVanets -e 44 -c 2 -a 0 -i 0 -k RTR
h -t 15.000000000 -s 1 -d -1 -p XFXVanets -e 44 -c 2 -a 0 -i 0 -k RTR
r -t 15.000936925 -s 0 -d -1 -p XFXVanets -e 44 -c 2 -a 0 -i 0 -k RTR
r -t 15.002063849 -s 1 -d -1 -p XFXVanets -e 44 -c 2 -a 0 -i 0 -k RTR
+ -t 16.000000000 -s 0 -d -1 -p XFXVanets -e 44 -c 2 -a 0 -i 0 -k RTR 
- -t 16.000000000 -s 0 -d -1 -p XFXVanets -e 44 -c 2 -a 0 -i 0 -k RTR
h -t 16.000000000 -s 0 -d -1 -p XFXVanets -e 44 -c 2 -a 0 -i 0 -k RTR
+ -t 16.000000000 -s 1 -d -1 -p XFXVanets -e 44 -c 2 -a 0 -i 0 -k RTR 
- -t 16.000000000 -s 1 -d -1 -p XFXVanets -e 44 -c 2 -a 0 -i 0 -k RTR
h -t 16.000000000 -s 1 -d -1 -p XFXVanets -e 44 -c 2 -a 0 -i 0 -k RTR
r -t 16.001036891 -s 1 -d -1 -p XFXVanets -e 44 -c 2 -a 0 -i 0 -k RTR
r -t 16.002083781 -s 0 -d -1 -p XFXVanets -e 44 -c 2 -a 0 -i 0 -k RTR
+ -t 17.000000000 -s 0 -d -1 -p XFXVanets -e 44 -c 2 -a 0 -i 0 -k RTR 
- -t 17.000000000 -s 0 -d -1 -p XFXVanets -e 44 -c 2 -a 0 -i 0 -k RTR
h -t 17.000000000 -s 0 -d -1 -p XFXVanets -e 44 -c 2 -a 0 -i 0 -k RTR
+ -t 17.000000000 -s 1 -d -1 -p XFXVanets -e 44 -c 2 -a 0 -i 0 -k RTR 
- -t 17.000000000 -s 1 -d -1 -p XFXVanets -e 44 -c 2 -a 0 -i 0 -k RTR
h -t 17.000000000 -s 1 -d -1 -p XFXVanets -e 44 -c 2 -a 0 -i 0 -k RTR
r -t 17.001036857 -s 1 -d -1 -p XFXVanets -e 44 -c 2 -a 0 -i 0 -k RTR
r -t 17.001983715 -s 0 -d -1 -p XFXVanets -e 44 -c 2 -a 0 -i 0 -k RTR
+ -t 18.000000000 -s 0 -d -1 -p XFXVanets -e 44 -c 2 -a 0 -i 0 -k RTR 
- -t 18.000000000 -s 0 -d -1 -p XFXVanets -e 44 -c 2 -a 0 -i 0 -k RTR
h -t 18.000000000 -s 0 -d -1 -p XFXVanets -e 44 -c 2 -a 0 -i 0 -k RTR
+ -t 18.000000000 -s 1 -d -1 -p XFXVanets -e 44 -c 2 -a 0 -i 0 -k RTR 
- -t 18.000000000 -s 1 -d -1 -p XFXVanets -e 44 -c 2 -a 0 -i 0 -k RTR
h -t 18.000000000 -s 1 -d -1 -p XFXVanets -e 44 -c 2 -a 0 -i 0 -k RTR
r -t 18.001116825 -s 0 -d -1 -p XFXVanets -e 44 -c 2 -a 0 -i 0 -k RTR
r -t 18.002043650 -s 1 -d -1 -p XFXVanets -e 44 -c 2 -a 0 -i 0 -k RTR
+ -t 19.000000000 -s 0 -d -1 -p XFXVanets -e 44 -c 2 -a 0 -i 0 -k RTR 
- -t 19.000000000 -s 0 -d -1 -p XFXVanets -e 44 -c 2 -a 0 -i 0 -k RTR
h -t 19.000000000 -s 0 -d -1 -p XFXVanets -e 44 -c 2 -a 0 -i 0 -k RTR
+ -t 19.000000000 -s 1 -d -1 -p XFXVanets -e 44 -c 2 -a 0 -i 0 -k RTR 
- -t 19.000000000 -s 1 -d -1 -p XFXVanets -e 44 -c 2 -a 0 -i 0 -k RTR
h -t 19.000000000 -s 1 -d -1 -p XFXVanets -e 44 -c 2 -a 0 -i 0 -k RTR
r -t 19.001036794 -s 0 -d -1 -p XFXVanets -e 44 -c 2 -a 0 -i 0 -k RTR
r -t 19.002383588 -s 1 -d -1 -p XFXVanets -e 44 -c 2 -a 0 -i 0 -k RTR
+ -t 20.000000000 -s 0 -d -1 -p XFXVanets -e 44 -c 2 -a 0 -i 0 -k RTR 
- -t 20.000000000 -s 0 -d -1 -p XFXVanets -e 44 -c 2 -a 0 -i 0 -k RTR
h -t 20.000000000 -s 0 -d -1 -p XFXVanets -e 44 -c 2 -a 0 -i 0 -k RTR
+ -t 20.000000000 -s 1 -d -1 -p XFXVanets -e 44 -c 2 -a 0 -i 0 -k RTR 
- -t 20.000000000 -s 1 -d -1 -p XFXVanets -e 44 -c 2 -a 0 -i 0 -k RTR
h -t 20.000000000 -s 1 -d -1 -p XFXVanets -e 44 -c 2 -a 0 -i 0 -k RTR
r -t 20.001036763 -s 1 -d -1 -p XFXVanets -e 44 -c 2 -a 0 -i 0 -k RTR
r -t 20.002383527 -s 0 -d -1 -p XFXVanets -e 44 -c 2 -a 0 -i 0 -k RTR
+ -t 21.000000000 -s 0 -d -1 -p XFXVanets -e 44 -c 2 -a 0 -i 0 -k RTR 
- -t 21.000000000 -s 0 -d -1 -p XFXVanets -e 44 -c 2 -a 0 -i 0 -k RTR
h -t 21.000000000 -s 0 -d -1 -p XFXVanets -e 44 -c 2 -a 0 -i 0 -k RTR
+ -t 21.000000000 -s 1 -d -1 -p XFXVanets -e 44 -c 2 -a 0 -i 0 -k RTR 
- -t 21.000000000 -s 1 -d -1 -p XFXVanets -e 44 -c 2 -a 0 -i 0 -k RTR
h -t 21.000000000 -s 1 -d -1 -p XFXVanets -e 44 -c 2 -a 0 -i 0 -k RTR
+ -t 22.000000000 -s 0 -d -1 -p tcp -e 40 -c 2 -a 0 -i 3 -k AGT 
- -t 22.000000000 -s 0 -d -1 -p tcp -e 40 -c 2 -a 0 -i 3 -k AGT
h -t 22.000000000 -s 0 -d -1 -p tcp -e 40 -c 2 -a 0 -i 3 -k AGT
+ -t 22.000000000 -s 0 -d -1 -p XFXVanets -e 44 -c 2 -a 0 -i 0 -k RTR 
- -t 22.000000000 -s 0 -d -1 -p XFXVanets -e 44 -c 2 -a 0 -i 0 -k RTR
h -t 22.000000000 -s 0 -d -1 -p XFXVanets -e 44 -c 2 -a 0 -i 0 -k RTR
+ -t 22.000000000 -s 1 -d -1 -p XFXVanets -e 44 -c 2 -a 0 -i 0 -k RTR 
- -t 22.000000000 -s 1 -d -1 -p XFXVanets -e 44 -c 2 -a 0 -i 0 -k RTR
h -t 22.000000000 -s 1 -d -1 -p XFXVanets -e 44 -c 2 -a 0 -i 0 -k RTR
r -t 22.000956706 -s 1 -d -1 -p XFXVanets -e 44 -c 2 -a 0 -i 0 -k RTR
r -t 22.002363413 -s 0 -d -1 -p XFXVanets -e 44 -c 2 -a 0 -i 0 -k RTR
+ -t 23.000000000 -s 0 -d -1 -p XFXVanets -e 44 -c 2 -a 0 -i 0 -k RTR 
- -t 23.000000000 -s 0 -d -1 -p XFXVanets -e 44 -c 2 -a 0 -i 0 -k RTR
h -t 23.000000000 -s 0 -d -1 -p XFXVanets -e 44 -c 2 -a 0 -i 0 -k RTR
+ -t 23.000000000 -s 1 -d -1 -p XFXVanets -e 44 -c 2 -a 0 -i 0 -k RTR 
- -t 23.000000000 -s 1 -d -1 -p XFXVanets -e 44 -c 2 -a 0 -i 0 -k RTR
h -t 23.000000000 -s 1 -d -1 -p XFXVanets -e 44 -c 2 -a 0 -i 0 -k RTR
r -t 23.001076680 -s 1 -d -1 -p XFXVanets -e 44 -c 2 -a 0 -i 0 -k RTR
r -t 23.002223360 -s 0 -d -1 -p XFXVanets -e 44 -c 2 -a 0 -i 0 -k RTR
+ -t 24.000000000 -s 0 -d -1 -p XFXVanets -e 44 -c 2 -a 0 -i 0 -k RTR 
- -t 24.000000000 -s 0 -d -1 -p XFXVanets -e 44 -c 2 -a 0 -i 0 -k RTR
h -t 24.000000000 -s 0 -d -1 -p XFXVanets -e 44 -c 2 -a 0 -i 0 -k RTR
+ -t 24.000000000 -s 1 -d -1 -p XFXVanets -e 44 -c 2 -a 0 -i 0 -k RTR 
- -t 24.000000000 -s 1 -d -1 -p XFXVanets -e 44 -c 2 -a 0 -i 0 -k RTR
h -t 24.000000000 -s 1 -d -1 -p XFXVanets -e 44 -c 2 -a 0 -i 0 -k RTR
r -t 24.001076655 -s 1 -d -1 -p XFXVanets -e 44 -c 2 -a 0 -i 0 -k RTR
r -t 24.002003311 -s 0 -d -1 -p XFXVanets -e 44 -c 2 -a 0 -i 0 -k RTR
+ -t 25.000000000 -s 0 -d -1 -p XFXVanets -e 44 -c 2 -a 0 -i 0 -k RTR 
- -t 25.000000000 -s 0 -d -1 -p XFXVanets -e 44 -c 2 -a 0 -i 0 -k RTR
h -t 25.000000000 -s 0 -d -1 -p XFXVanets -e 44 -c 2 -a 0 -i 0 -k RTR
+ -t 25.000000000 -s 1 -d -1 -p XFXVanets -e 44 -c 2 -a 0 -i 0 -k RTR 
- -t 25.000000000 -s 1 -d -1 -p XFXVanets -e 44 -c 2 -a 0 -i 0 -k RTR
h -t 25.000000000 -s 1 -d -1 -p XFXVanets -e 44 -c 2 -a 0 -i 0 -k RTR
r -t 25.001236633 -s 0 -d -1 -p XFXVanets -e 44 -c 2 -a 0 -i 0 -k RTR
r -t 25.002143265 -s 1 -d -1 -p XFXVanets -e 44 -c 2 -a 0 -i 0 -k RTR
+ -t 26.000000000 -s 0 -d -1 -p XFXVanets -e 44 -c 2 -a 0 -i 0 -k RTR 
- -t 26.000000000 -s 0 -d -1 -p XFXVanets -e 44 -c 2 -a 0 -i 0 -k RTR
h -t 26.000000000 -s 0 -d -1 -p XFXVanets -e 44 -c 2 -a 0 -i 0 -k RTR
+ -t 26.000000000 -s 1 -d -1 -p XFXVanets -e 44 -c 2 -a 0 -i 0 -k RTR 
- -t 26.000000000 -s 1 -d -1 -p XFXVanets -e 44 -c 2 -a 0 -i 0 -k RTR
h -t 26.000000000 -s 1 -d -1 -p XFXVanets -e 44 -c 2 -a 0 -i 0 -k RTR
r -t 26.001076612 -s 0 -d -1 -p XFXVanets -e 44 -c 2 -a 0 -i 0 -k RTR
r -t 26.002103224 -s 1 -d -1 -p XFXVanets -e 44 -c 2 -a 0 -i 0 -k RTR
+ -t 27.000000000 -s 0 -d -1 -p XFXVanets -e 44 -c 2 -a 0 -i 0 -k RTR 
- -t 27.000000000 -s 0 -d -1 -p XFXVanets -e 44 -c 2 -a 0 -i 0 -k RTR
h -t 27.000000000 -s 0 -d -1 -p XFXVanets -e 44 -c 2 -a 0 -i 0 -k RTR
+ -t 27.000000000 -s 1 -d -1 -p XFXVanets -e 44 -c 2 -a 0 -i 0 -k RTR 
- -t 27.000000000 -s 1 -d -1 -p XFXVanets -e 44 -c 2 -a 0 -i 0 -k RTR
h -t 27.000000000 -s 1 -d -1 -p XFXVanets -e 44 -c 2 -a 0 -i 0 -k RTR
r -t 27.000916593 -s 0 -d -1 -p XFXVanets -e 44 -c 2 -a 0 -i 0 -k RTR
r -t 27.001883187 -s 1 -d -1 -p XFXVanets -e 44 -c 2 -a 0 -i 0 -k RTR
+ -t 28.000000000 -s 0 -d -1 -p XFXVanets -e 44 -c 2 -a 0 -i 0 -k RTR 
- -t 28.000000000 -s 0 -d -1 -p XFXVanets -e 44 -c 2 -a 0 -i 0 -k RTR
h -t 28.000000000 -s 0 -d -1 -p XFXVanets -e 44 -c 2 -a 0 -i 0 -k RTR
+ -t 28.000000000 -s 1 -d -1 -p XFXVanets -e 44 -c 2 -a 0 -i 0 -k RTR 
- -t 28.000000000 -s 1 -d -1 -p XFXVanets -e 44 -c 2 -a 0 -i 0 -k RTR
h -t 28.000000000 -s 1 -d -1 -p XFXVanets -e 44 -c 2 -a 0 -i 0 -k RTR
r -t 28.001336578 -s 0 -d -1 -p XFXVanets -e 44 -c 2 -a 0 -i 0 -k RTR
r -t 28.002383155 -s 1 -d -1 -p XFXVanets -e 44 -c 2 -a 0 -i 0 -k RTR
+ -t 29.000000000 -s 0 -d -1 -p XFXVanets -e 44 -c 2 -a 0 -i 0 -k RTR 
- -t 29.000000000 -s 0 -d -1 -p XFXVanets -e 44 -c 2 -a 0 -i 0 -k RTR
h -t 29.000000000 -s 0 -d -1 -p XFXVanets -e 44 -c 2 -a 0 -i 0 -k RTR
+ -t 29.000000000 -s 1 -d -1 -p XFXVanets -e 44 -c 2 -a 0 -i 0 -k RTR 
- -t 29.000000000 -s 1 -d -1 -p XFXVanets -e 44 -c 2 -a 0 -i 0 -k RTR
h -t 29.000000000 -s 1 -d -1 -p XFXVanets -e 44 -c 2 -a 0 -i 0 -k RTR
r -t 29.000976564 -s 1 -d -1 -p XFXVanets -e 44 -c 2 -a 0 -i 0 -k RTR
r -t 29.002043129 -s 0 -d -1 -p XFXVanets -e 44 -c 2 -a 0 -i 0 -k RTR
+ -t 30.000000000 -s 0 -d -1 -p XFXVanets -e 44 -c 2 -a 0 -i 0 -k RTR 
- -t 30.000000000 -s 0 -d -1 -p XFXVanets -e 44 -c 2 -a 0 -i 0 -k RTR
h -t 30.000000000 -s 0 -d -1 -p XFXVanets -e 44 -c 2 -a 0 -i 0 -k RTR
+ -t 30.000000000 -s 1 -d -1 -p XFXVanets -e 44 -c 2 -a 0 -i 0 -k RTR 
- -t 30.000000000 -s 1 -d -1 -p XFXVanets -e 44 -c 2 -a 0 -i 0 -k RTR
h -t 30.000000000 -s 1 -d -1 -p XFXVanets -e 44 -c 2 -a 0 -i 0 -k RTR
r -t 30.001296542 -s 1 -d -1 -p XFXVanets -e 44 -c 2 -a 0 -i 0 -k RTR
r -t 30.002223084 -s 0 -d -1 -p XFXVanets -e 44 -c 2 -a 0 -i 0 -k RTR
+ -t 31.000000000 -s 0 -d -1 -p XFXVanets -e 44 -c 2 -a 0 -i 0 -k RTR 
- -t 31.000000000 -s 0 -d -1 -p XFXVanets -e 44 -c 2 -a 0 -i 0 -k RTR
h -t 31.000000000 -s 0 -d -1 -p XFXVanets -e 44 -c 2 -a 0 -i 0 -k RTR
+ -t 31.000000000 -s 1 -d -1 -p XFXVanets -e 44 -c 2 -a 0 -i 0 -k RTR 
- -t 31.000000000 -s 1 -d -1 -p XFXVanets -e 44 -c 2 -a 0 -i 0 -k RTR
h -t 31.000000000 -s 1 -d -1 -p XFXVanets -e 44 -c 2 -a 0 -i 0 -k RTR
r -t 31.001096512 -s 0 -d -1 -p XFXVanets -e 44 -c 2 -a 0 -i 0 -k RTR
r -t 31.002103025 -s 1 -d -1 -p XFXVanets -e 44 -c 2 -a 0 -i 0 -k RTR
+ -t 32.000000000 -s 0 -d -1 -p XFXVanets -e 44 -c 2 -a 0 -i 0 -k RTR 
- -t 32.000000000 -s 0 -d -1 -p XFXVanets -e 44 -c 2 -a 0 -i 0 -k RTR
h -t 32.000000000 -s 0 -d -1 -p XFXVanets -e 44 -c 2 -a 0 -i 0 -k RTR
+ -t 32.000000000 -s 1 -d -1 -p XFXVanets -e 44 -c 2 -a 0 -i 0 -k RTR 
- -t 32.000000000 -s 1 -d -1 -p XFXVanets -e 44 -c 2 -a 0 -i 0 -k RTR
h -t 32.000000000 -s 1 -d -1 -p XFXVanets -e 44 -c 2 -a 0 -i 0 -k RTR
r -t 32.001056483 -s 1 -d -1 -p XFXVanets -e 44 -c 2 -a 0 -i 0 -k RTR
r -t 32.002022966 -s 0 -d -1 -p XFXVanets -e 44 -c 2 -a 0 -i 0 -k RTR
+ -t 33.000000000 -s 0 -d -1 -p XFXVanets -e 44 -c 2 -a 0 -i 0 -k RTR 
- -t 33.000000000 -s 0 -d -1 -p XFXVanets -e 44 -c 2 -a 0 -i 0 -k RTR
h -t 33.000000000 -s 0 -d -1 -p XFXVanets -e 44 -c 2 -a 0 -i 0 -k RTR
+ -t 33.000000000 -s 1 -d -1 -p XFXVanets -e 44 -c 2 -a 0 -i 0 -k RTR 
- -t 33.000000000 -s 1 -d -1 -p XFXVanets -e 44 -c 2 -a 0 -i 0 -k RTR
h -t 33.000000000 -s 1 -d -1 -p XFXVanets -e 44 -c 2 -a 0 -i 0 -k RTR
r -t 33.000916454 -s 1 -d -1 -p XFXVanets -e 44 -c 2 -a 0 -i 0 -k RTR
r -t 33.002322908 -s 0 -d -1 -p XFXVanets -e 44 -c 2 -a 0 -i 0 -k RTR
+ -t 34.000000000 -s 0 -d -1 -p XFXVanets -e 44 -c 2 -a 0 -i 0 -k RTR 
- -t 34.000000000 -s 0 -d -1 -p XFXVanets -e 44 -c 2 -a 0 -i 0 -k RTR
h -t 34.000000000 -s 0 -d -1 -p XFXVanets -e 44 -c 2 -a 0 -i 0 -k RTR
+ -t 34.000000000 -s 1 -d -1 -p XFXVanets -e 44 -c 2 -a 0 -i 0 -k RTR 
- -t 34.000000000 -s 1 -d -1 -p XFXVanets -e 44 -c 2 -a 0 -i 0 -k RTR
h -t 34.000000000 -s 1 -d -1 -p XFXVanets -e 44 -c 2 -a 0 -i 0 -k RTR
r -t 34.001136426 -s 0 -d -1 -p XFXVanets -e 44 -c 2 -a 0 -i 0 -k RTR
r -t 34.002362852 -s 1 -d -1 -p XFXVanets -e 44 -c 2 -a 0 -i 0 -k RTR
+ -t 35.000000000 -s 0 -d -1 -p XFXVanets -e 44 -c 2 -a 0 -i 0 -k RTR 
- -t 35.000000000 -s 0 -d -1 -p XFXVanets -e 44 -c 2 -a 0 -i 0 -k RTR
h -t 35.000000000 -s 0 -d -1 -p XFXVanets -e 44 -c 2 -a 0 -i 0 -k RTR
+ -t 35.000000000 -s 1 -d -1 -p XFXVanets -e 44 -c 2 -a 0 -i 0 -k RTR 
- -t 35.000000000 -s 1 -d -1 -p XFXVanets -e 44 -c 2 -a 0 -i 0 -k RTR
h -t 35.000000000 -s 1 -d -1 -p XFXVanets -e 44 -c 2 -a 0 -i 0 -k RTR
r -t 35.001156399 -s 1 -d -1 -p XFXVanets -e 44 -c 2 -a 0 -i 0 -k RTR
r -t 35.002302797 -s 0 -d -1 -p XFXVanets -e 44 -c 2 -a 0 -i 0 -k RTR
+ -t 36.000000000 -s 0 -d -1 -p XFXVanets -e 44 -c 2 -a 0 -i 0 -k RTR 
- -t 36.000000000 -s 0 -d -1 -p XFXVanets -e 44 -c 2 -a 0 -i 0 -k RTR
h -t 36.000000000 -s 0 -d -1 -p XFXVanets -e 44 -c 2 -a 0 -i 0 -k RTR
+ -t 36.000000000 -s 1 -d -1 -p XFXVanets -e 44 -c 2 -a 0 -i 0 -k RTR 
- -t 36.000000000 -s 1 -d -1 -p XFXVanets -e 44 -c 2 -a 0 -i 0 -k RTR
h -t 36.000000000 -s 1 -d -1 -p XFXVanets -e 44 -c 2 -a 0 -i 0 -k RTR
r -t 36.000916372 -s 1 -d -1 -p XFXVanets -e 44 -c 2 -a 0 -i 0 -k RTR
r -t 36.002162745 -s 0 -d -1 -p XFXVanets -e 44 -c 2 -a 0 -i 0 -k RTR
+ -t 37.000000000 -s 0 -d -1 -p XFXVanets -e 44 -c 2 -a 0 -i 0 -k RTR 
- -t 37.000000000 -s 0 -d -1 -p XFXVanets -e 44 -c 2 -a 0 -i 0 -k RTR
h -t 37.000000000 -s 0 -d -1 -p XFXVanets -e 44 -c 2 -a 0 -i 0 -k RTR
+ -t 37.000000000 -s 1 -d -1 -p XFXVanets -e 44 -c 2 -a 0 -i 0 -k RTR 
- -t 37.000000000 -s 1 -d -1 -p XFXVanets -e 44 -c 2 -a 0 -i 0 -k RTR
h -t 37.000000000 -s 1 -d -1 -p XFXVanets -e 44 -c 2 -a 0 -i 0 -k RTR
r -t 37.000916347 -s 1 -d -1 -p XFXVanets -e 44 -c 2 -a 0 -i 0 -k RTR
r -t 37.001902694 -s 0 -d -1 -p XFXVanets -e 44 -c 2 -a 0 -i 0 -k RTR
+ -t 38.000000000 -s 0 -d -1 -p XFXVanets -e 44 -c 2 -a 0 -i 0 -k RTR 
- -t 38.000000000 -s 0 -d -1 -p XFXVanets -e 44 -c 2 -a 0 -i 0 -k RTR
h -t 38.000000000 -s 0 -d -1 -p XFXVanets -e 44 -c 2 -a 0 -i 0 -k RTR
+ -t 38.000000000 -s 1 -d -1 -p XFXVanets -e 44 -c 2 -a 0 -i 0 -k RTR 
- -t 38.000000000 -s 1 -d -1 -p XFXVanets -e 44 -c 2 -a 0 -i 0 -k RTR
h -t 38.000000000 -s 1 -d -1 -p XFXVanets -e 44 -c 2 -a 0 -i 0 -k RTR
r -t 38.001416324 -s 1 -d -1 -p XFXVanets -e 44 -c 2 -a 0 -i 0 -k RTR
r -t 38.002382647 -s 0 -d -1 -p XFXVanets -e 44 -c 2 -a 0 -i 0 -k RTR
+ -t 39.000000000 -s 0 -d -1 -p XFXVanets -e 44 -c 2 -a 0 -i 0 -k RTR 
- -t 39.000000000 -s 0 -d -1 -p XFXVanets -e 44 -c 2 -a 0 -i 0 -k RTR
h -t 39.000000000 -s 0 -d -1 -p XFXVanets -e 44 -c 2 -a 0 -i 0 -k RTR
+ -t 39.000000000 -s 1 -d -1 -p XFXVanets -e 44 -c 2 -a 0 -i 0 -k RTR 
- -t 39.000000000 -s 1 -d -1 -p XFXVanets -e 44 -c 2 -a 0 -i 0 -k RTR
h -t 39.000000000 -s 1 -d -1 -p XFXVanets -e 44 -c 2 -a 0 -i 0 -k RTR
r -t 39.000956302 -s 0 -d -1 -p XFXVanets -e 44 -c 2 -a 0 -i 0 -k RTR
r -t 39.002322603 -s 1 -d -1 -p XFXVanets -e 44 -c 2 -a 0 -i 0 -k RTR
+ -t 40.000000000 -s 0 -d -1 -p XFXVanets -e 44 -c 2 -a 0 -i 0 -k RTR 
- -t 40.000000000 -s 0 -d -1 -p XFXVanets -e 44 -c 2 -a 0 -i 0 -k RTR
h -t 40.000000000 -s 0 -d -1 -p XFXVanets -e 44 -c 2 -a 0 -i 0 -k RTR
+ -t 40.000000000 -s 1 -d -1 -p XFXVanets -e 44 -c 2 -a 0 -i 0 -k RTR 
- -t 40.000000000 -s 1 -d -1 -p XFXVanets -e 44 -c 2 -a 0 -i 0 -k RTR
h -t 40.000000000 -s 1 -d -1 -p XFXVanets -e 44 -c 2 -a 0 -i 0 -k RTR
r -t 40.000916282 -s 1 -d -1 -p XFXVanets -e 44 -c 2 -a 0 -i 0 -k RTR
r -t 40.001862564 -s 0 -d -1 -p XFXVanets -e 44 -c 2 -a 0 -i 0 -k RTR
+ -t 41.000000000 -s 0 -d -1 -p XFXVanets -e 44 -c 2 -a 0 -i 0 -k RTR 
- -t 41.000000000 -s 0 -d -1 -p XFXVanets -e 44 -c 2 -a 0 -i 0 -k RTR
h -t 41.000000000 -s 0 -d -1 -p XFXVanets -e 44 -c 2 -a 0 -i 0 -k RTR
+ -t 41.000000000 -s 1 -d -1 -p XFXVanets -e 44 -c 2 -a 0 -i 0 -k RTR 
- -t 41.000000000 -s 1 -d -1 -p XFXVanets -e 44 -c 2 -a 0 -i 0 -k RTR
h -t 41.000000000 -s 1 -d -1 -p XFXVanets -e 44 -c 2 -a 0 -i 0 -k RTR
r -t 41.001236265 -s 0 -d -1 -p XFXVanets -e 44 -c 2 -a 0 -i 0 -k RTR
r -t 41.002122530 -s 1 -d -1 -p XFXVanets -e 44 -c 2 -a 0 -i 0 -k RTR
+ -t 42.000000000 -s 0 -d -1 -p XFXVanets -e 44 -c 2 -a 0 -i 0 -k RTR 
- -t 42.000000000 -s 0 -d -1 -p XFXVanets -e 44 -c 2 -a 0 -i 0 -k RTR
h -t 42.000000000 -s 0 -d -1 -p XFXVanets -e 44 -c 2 -a 0 -i 0 -k RTR
+ -t 42.000000000 -s 1 -d -1 -p XFXVanets -e 44 -c 2 -a 0 -i 0 -k RTR 
- -t 42.000000000 -s 1 -d -1 -p XFXVanets -e 44 -c 2 -a 0 -i 0 -k RTR
h -t 42.000000000 -s 1 -d -1 -p XFXVanets -e 44 -c 2 -a 0 -i 0 -k RTR
r -t 42.001416252 -s 0 -d -1 -p XFXVanets -e 44 -c 2 -a 0 -i 0 -k RTR
r -t 42.002302503 -s 1 -d -1 -p XFXVanets -e 44 -c 2 -a 0 -i 0 -k RTR
+ -t 43.000000000 -s 0 -d -1 -p XFXVanets -e 44 -c 2 -a 0 -i 0 -k RTR 
- -t 43.000000000 -s 0 -d -1 -p XFXVanets -e 44 -c 2 -a 0 -i 0 -k RTR
h -t 43.000000000 -s 0 -d -1 -p XFXVanets -e 44 -c 2 -a 0 -i 0 -k RTR
+ -t 43.000000000 -s 1 -d -1 -p XFXVanets -e 44 -c 2 -a 0 -i 0 -k RTR 
- -t 43.000000000 -s 1 -d -1 -p XFXVanets -e 44 -c 2 -a 0 -i 0 -k RTR
h -t 43.000000000 -s 1 -d -1 -p XFXVanets -e 44 -c 2 -a 0 -i 0 -k RTR
r -t 43.000916242 -s 1 -d -1 -p XFXVanets -e 44 -c 2 -a 0 -i 0 -k RTR
r -t 43.002342484 -s 0 -d -1 -p XFXVanets -e 44 -c 2 -a 0 -i 0 -k RTR
+ -t 44.000000000 -s 0 -d -1 -p XFXVanets -e 44 -c 2 -a 0 -i 0 -k RTR 
- -t 44.000000000 -s 0 -d -1 -p XFXVanets -e 44 -c 2 -a 0 -i 0 -k RTR
h -t 44.000000000 -s 0 -d -1 -p XFXVanets -e 44 -c 2 -a 0 -i 0 -k RTR
+ -t 44.000000000 -s 1 -d -1 -p XFXVanets -e 44 -c 2 -a 0 -i 0 -k RTR 
- -t 44.000000000 -s 1 -d -1 -p XFXVanets -e 44 -c 2 -a 0 -i 0 -k RTR
h -t 44.000000000 -s 1 -d -1 -p XFXVanets -e 44 -c 2 -a 0 -i 0 -k RTR
r -t 44.000976237 -s 1 -d -1 -p XFXVanets -e 44 -c 2 -a 0 -i 0 -k RTR
r -t 44.002082473 -s 0 -d -1 -p XFXVanets -e 44 -c 2 -a 0 -i 0 -k RTR
+ -t 45.000000000 -s 0 -d -1 -p XFXVanets -e 44 -c 2 -a 0 -i 0 -k RTR 
- -t 45.000000000 -s 0 -d -1 -p XFXVanets -e 44 -c 2 -a 0 -i 0 -k RTR
h -t 45.000000000 -s 0 -d -1 -p XFXVanets -e 44 -c 2 -a 0 -i 0 -k RTR
+ -t 45.000000000 -s 1 -d -1 -p XFXVanets -e 44 -c 2 -a 0 -i 0 -k RTR 
- -t 45.000000000 -s 1 -d -1 -p XFXVanets -e 44 -c 2 -a 0 -i 0 -k RTR
h -t 45.000000000 -s 1 -d -1 -p XFXVanets -e 44 -c 2 -a 0 -i 0 -k RTR
r -t 45.000936236 -s 0 -d -1 -p XFXVanets -e 44 -c 2 -a 0 -i 0 -k RTR
r -t 45.002242471 -s 1 -d -1 -p XFXVanets -e 44 -c 2 -a 0 -i 0 -k RTR
+ -t 46.000000000 -s 0 -d -1 -p tcp -e 40 -c 2 -a 0 -i 4 -k AGT 
- -t 46.000000000 -s 0 -d -1 -p tcp -e 40 -c 2 -a 0 -i 4 -k AGT
h -t 46.000000000 -s 0 -d -1 -p tcp -e 40 -c 2 -a 0 -i 4 -k AGT
+ -t 46.000000000 -s 0 -d -1 -p XFXVanets -e 44 -c 2 -a 0 -i 0 -k RTR 
- -t 46.000000000 -s 0 -d -1 -p XFXVanets -e 44 -c 2 -a 0 -i 0 -k RTR
h -t 46.000000000 -s 0 -d -1 -p XFXVanets -e 44 -c 2 -a 0 -i 0 -k RTR
+ -t 46.000000000 -s 1 -d -1 -p XFXVanets -e 44 -c 2 -a 0 -i 0 -k RTR 
- -t 46.000000000 -s 1 -d -1 -p XFXVanets -e 44 -c 2 -a 0 -i 0 -k RTR
h -t 46.000000000 -s 1 -d -1 -p XFXVanets -e 44 -c 2 -a 0 -i 0 -k RTR
r -t 46.001376236 -s 0 -d -1 -p XFXVanets -e 44 -c 2 -a 0 -i 0 -k RTR
r -t 46.002342471 -s 1 -d -1 -p XFXVanets -e 44 -c 2 -a 0 -i 0 -k RTR
+ -t 47.000000000 -s 0 -d -1 -p XFXVanets -e 44 -c 2 -a 0 -i 0 -k RTR 
- -t 47.000000000 -s 0 -d -1 -p XFXVanets -e 44 -c 2 -a 0 -i 0 -k RTR
h -t 47.000000000 -s 0 -d -1 -p XFXVanets -e 44 -c 2 -a 0 -i 0 -k RTR
+ -t 47.000000000 -s 1 -d -1 -p XFXVanets -e 44 -c 2 -a 0 -i 0 -k RTR 
- -t 47.000000000 -s 1 -d -1 -p XFXVanets -e 44 -c 2 -a 0 -i 0 -k RTR
h -t 47.000000000 -s 1 -d -1 -p XFXVanets -e 44 -c 2 -a 0 -i 0 -k RTR
r -t 47.001016236 -s 0 -d -1 -p XFXVanets -e 44 -c 2 -a 0 -i 0 -k RTR
r -t 47.002142471 -s 1 -d -1 -p XFXVanets -e 44 -c 2 -a 0 -i 0 -k RTR
+ -t 48.000000000 -s 0 -d -1 -p XFXVanets -e 44 -c 2 -a 0 -i 0 -k RTR 
- -t 48.000000000 -s 0 -d -1 -p XFXVanets -e 44 -c 2 -a 0 -i 0 -k RTR
h -t 48.000000000 -s 0 -d -1 -p XFXVanets -e 44 -c 2 -a 0 -i 0 -k RTR
+ -t 48.000000000 -s 1 -d -1 -p XFXVanets -e 44 -c 2 -a 0 -i 0 -k RTR 
- -t 48.000000000 -s 1 -d -1 -p XFXVanets -e 44 -c 2 -a 0 -i 0 -k RTR
h -t 48.000000000 -s 1 -d -1 -p XFXVanets -e 44 -c 2 -a 0 -i 0 -k RTR
r -t 48.000956236 -s 1 -d -1 -p XFXVanets -e 44 -c 2 -a 0 -i 0 -k RTR
r -t 48.001882471 -s 0 -d -1 -p XFXVanets -e 44 -c 2 -a 0 -i 0 -k RTR
+ -t 49.000000000 -s 0 -d -1 -p XFXVanets -e 44 -c 2 -a 0 -i 0 -k RTR 
- -t 49.000000000 -s 0 -d -1 -p XFXVanets -e 44 -c 2 -a 0 -i 0 -k RTR
h -t 49.000000000 -s 0 -d -1 -p XFXVanets -e 44 -c 2 -a 0 -i 0 -k RTR
+ -t 49.000000000 -s 1 -d -1 -p XFXVanets -e 44 -c 2 -a 0 -i 0 -k RTR 
- -t 49.000000000 -s 1 -d -1 -p XFXVanets -e 44 -c 2 -a 0 -i 0 -k RTR
h -t 49.000000000 -s 1 -d -1 -p XFXVanets -e 44 -c 2 -a 0 -i 0 -k RTR
r -t 49.001236236 -s 0 -d -1 -p XFXVanets -e 44 -c 2 -a 0 -i 0 -k RTR
r -t 49.002302471 -s 1 -d -1 -p XFXVanets -e 44 -c 2 -a 0 -i 0 -k RTR
+ -t 50.000000000 -s 0 -d -1 -p XFXVanets -e 44 -c 2 -a 0 -i 0 -k RTR 
- -t 50.000000000 -s 0 -d -1 -p XFXVanets -e 44 -c 2 -a 0 -i 0 -k RTR
h -t 50.000000000 -s 0 -d -1 -p XFXVanets -e 44 -c 2 -a 0 -i 0 -k RTR
+ -t 50.000000000 -s 1 -d -1 -p XFXVanets -e 44 -c 2 -a 0 -i 0 -k RTR 
- -t 50.000000000 -s 1 -d -1 -p XFXVanets -e 44 -c 2 -a 0 -i 0 -k RTR
h -t 50.000000000 -s 1 -d -1 -p XFXVanets -e 44 -c 2 -a 0 -i 0 -k RTR
r -t 50.001176236 -s 1 -d -1 -p XFXVanets -e 44 -c 2 -a 0 -i 0 -k RTR
r -t 50.002142471 -s 0 -d -1 -p XFXVanets -e 44 -c 2 -a 0 -i 0 -k RTR
+ -t 51.000000000 -s 0 -d -1 -p XFXVanets -e 44 -c 2 -a 0 -i 0 -k RTR 
- -t 51.000000000 -s 0 -d -1 -p XFXVanets -e 44 -c 2 -a 0 -i 0 -k RTR
h -t 51.000000000 -s 0 -d -1 -p XFXVanets -e 44 -c 2 -a 0 -i 0 -k RTR
+ -t 51.000000000 -s 1 -d -1 -p XFXVanets -e 44 -c 2 -a 0 -i 0 -k RTR 