s 1.000000000 _0_ RTR  --- 0 WFRP 52 [0 0 0 0] [energy 100.000000 ei 0.000 es 0.000 et 0.000 er 0.000] ------- [0:255 -1:255 64 0] 
M 10.00000 0 (60.00, 60.00, 0.00), (25.00, 25.00), 1.00
s 11.000000000 _0_ RTR  --- 0 WFRP 52 [0 0 0 0] [energy 99.999210 ei 0.001 es 0.000 et 0.000 er 0.000] ------- [0:255 -1:255 64 0] 
s 21.000000000 _0_ RTR  --- 0 WFRP 52 [0 0 0 0] [energy 99.992017 ei 0.008 es 0.000 et 0.000 er 0.000] ------- [0:255 -1:255 64 0] 
s 31.000000000 _0_ RTR  --- 0 WFRP 52 [0 0 0 0] [energy 99.984822 ei 0.015 es 0.000 et 0.000 er 0.000] ------- [0:255 -1:255 64 0] 
s 41.000000000 _0_ RTR  --- 0 WFRP 52 [0 0 0 0] [energy 99.977627 ei 0.022 es 0.000 et 0.000 er 0.000] ------- [0:255 -1:255 64 0] 
s 51.000000000 _0_ RTR  --- 0 WFRP 52 [0 0 0 0] [energy 99.970431 ei 0.029 es 0.000 et 0.000 er 0.000] ------- [0:255 -1:255 64 0] 
s 61.000000000 _0_ RTR  --- 0 WFRP 52 [0 0 0 0] [energy 99.963236 ei 0.036 es 0.000 et 0.000 er 0.000] ------- [0:255 -1:255 64 0] 
s 71.000000000 _0_ RTR  --- 0 WFRP 52 [0 0 0 0] [energy 99.956043 ei 0.043 es 0.000 et 0.000 er 0.000] ------- [0:255 -1:255 64 0] 
s 81.000000000 _0_ RTR  --- 0 WFRP 52 [0 0 0 0] [energy 99.948848 ei 0.051 es 0.000 et 0.001 er 0.000] ------- [0:255 -1:255 64 0] 
s 91.000000000 _0_ RTR  --- 0 WFRP 52 [0 0 0 0] [energy 99.941652 ei 0.058 es 0.000 et 0.001 er 0.000] ------- [0:255 -1:255 64 0] 
s 101.000000000 _0_ RTR  --- 0 WFRP 52 [0 0 0 0] [energy 99.934459 ei 0.065 es 0.000 et 0.001 er 0.000] ------- [0:255 -1:255 64 0] 
s 111.000000000 _0_ RTR  --- 0 WFRP 52 [0 0 0 0] [energy 99.927264 ei 0.072 es 0.000 et 0.001 er 0.000] ------- [0:255 -1:255 64 0] 
s 121.000000000 _0_ RTR  --- 0 WFRP 52 [0 0 0 0] [energy 99.920069 ei 0.079 es 0.000 et 0.001 er 0.000] ------- [0:255 -1:255 64 0] 
s 131.000000000 _0_ RTR  --- 0 WFRP 52 [0 0 0 0] [energy 99.912875 ei 0.086 es 0.000 et 0.001 er 0.000] ------- [0:255 -1:255 64 0] 
s 141.000000000 _0_ RTR  --- 0 WFRP 52 [0 0 0 0] [energy 99.905680 ei 0.093 es 0.000 et 0.001 er 0.000] ------- [0:255 -1:255 64 0] 
s 151.000000000 _0_ RTR  --- 0 WFRP 52 [0 0 0 0] [energy 99.898484 ei 0.100 es 0.000 et 0.001 er 0.000] ------- [0:255 -1:255 64 0] 
s 161.000000000 _0_ RTR  --- 0 WFRP 52 [0 0 0 0] [energy 99.891290 ei 0.107 es 0.000 et 0.001 er 0.000] ------- [0:255 -1:255 64 0] 
s 171.000000000 _0_ RTR  --- 0 WFRP 52 [0 0 0 0] [energy 99.884096 ei 0.115 es 0.000 et 0.001 er 0.000] ------- [0:255 -1:255 64 0] 
s 181.000000000 _0_ RTR  --- 0 WFRP 52 [0 0 0 0] [energy 99.876900 ei 0.122 es 0.000 et 0.001 er 0.000] ------- [0:255 -1:255 64 0] 
s 191.000000000 _0_ RTR  --- 0 WFRP 52 [0 0 0 0] [energy 99.869705 ei 0.129 es 0.000 et 0.001 er 0.000] ------- [0:255 -1:255 64 0] 
s 201.000000000 _0_ RTR  --- 0 WFRP 52 [0 0 0 0] [energy 99.862510 ei 0.136 es 0.000 et 0.001 er 0.000] ------- [0:255 -1:255 64 0] 
s 211.000000000 _0_ RTR  --- 0 WFRP 52 [0 0 0 0] [energy 99.855317 ei 0.143 es 0.000 et 0.001 er 0.000] ------- [0:255 -1:255 64 0] 
s 221.000000000 _0_ RTR  --- 0 WFRP 52 [0 0 0 0] [energy 99.848121 ei 0.150 es 0.000 et 0.001 er 0.000] ------- [0:255 -1:255 64 0] 
s 231.000000000 _0_ RTR  --- 0 WFRP 52 [0 0 0 0] [energy 99.840927 ei 0.157 es 0.000 et 0.001 er 0.000] ------- [0:255 -1:255 64 0] 
s 241.000000000 _0_ RTR  --- 0 WFRP 52 [0 0 0 0] [energy 99.833732 ei 0.164 es 0.000 et 0.002 er 0.000] ------- [0:255 -1:255 64 0] 
s 251.000000000 _0_ RTR  --- 0 WFRP 52 [0 0 0 0] [energy 99.826537 ei 0.172 es 0.000 et 0.002 er 0.000] ------- [0:255 -1:255 64 0] 
s 261.000000000 _0_ RTR  --- 0 WFRP 52 [0 0 0 0] [energy 99.819343 ei 0.179 es 0.000 et 0.002 er 0.000] ------- [0:255 -1:255 64 0] 
s 271.000000000 _0_ RTR  --- 0 WFRP 52 [0 0 0 0] [energy 99.812148 ei 0.186 es 0.000 et 0.002 er 0.000] ------- [0:255 -1:255 64 0] 
s 281.000000000 _0_ RTR  --- 0 WFRP 52 [0 0 0 0] [energy 99.804953 ei 0.193 es 0.000 et 0.002 er 0.000] ------- [0:255 -1:255 64 0] 
s 291.000000000 _0_ RTR  --- 0 WFRP 52 [0 0 0 0] [energy 99.797758 ei 0.200 es 0.000 et 0.002 er 0.000] ------- [0:255 -1:255 64 0] 
s 301.000000000 _0_ RTR  --- 0 WFRP 52 [0 0 0 0] [energy 99.790564 ei 0.207 es 0.000 et 0.002 er 0.000] ------- [0:255 -1:255 64 0] 
s 311.000000000 _0_ RTR  --- 0 WFRP 52 [0 0 0 0] [energy 99.783369 ei 0.214 es 0.000 et 0.002 er 0.000] ------- [0:255 -1:255 64 0] 
s 321.000000000 _0_ RTR  --- 0 WFRP 52 [0 0 0 0] [energy 99.776175 ei 0.221 es 0.000 et 0.002 er 0.000] ------- [0:255 -1:255 64 0] 
s 331.000000000 _0_ RTR  --- 0 WFRP 52 [0 0 0 0] [energy 99.768980 ei 0.228 es 0.000 et 0.002 er 0.000] ------- [0:255 -1:255 64 0] 
s 341.000000000 _0_ RTR  --- 0 WFRP 52 [0 0 0 0] [energy 99.761784 ei 0.236 es 0.000 et 0.002 er 0.000] ------- [0:255 -1:255 64 0] 
s 351.000000000 _0_ RTR  --- 0 WFRP 52 [0 0 0 0] [energy 99.754591 ei 0.243 es 0.000 et 0.002 er 0.000] ------- [0:255 -1:255 64 0] 
s 361.000000000 _0_ RTR  --- 0 WFRP 52 [0 0 0 0] [energy 99.747395 ei 0.250 es 0.000 et 0.002 er 0.000] ------- [0:255 -1:255 64 0] 
s 371.000000000 _0_ RTR  --- 0 WFRP 52 [0 0 0 0] [energy 99.740201 ei 0.257 es 0.000 et 0.002 er 0.000] ------- [0:255 -1:255 64 0] 
s 381.000000000 _0_ RTR  --- 0 WFRP 52 [0 0 0 0] [energy 99.733005 ei 0.264 es 0.000 et 0.002 er 0.000] ------- [0:255 -1:255 64 0] 
s 391.000000000 _0_ RTR  --- 0 WFRP 52 [0 0 0 0] [energy 99.725812 ei 0.271 es 0.000 et 0.003 er 0.000] ------- [0:255 -1:255 64 0] 
s 401.000000000 _0_ RTR  --- 0 WFRP 52 [0 0 0 0] [energy 99.718617 ei 0.278 es 0.000 et 0.003 er 0.000] ------- [0:255 -1:255 64 0] 
s 411.000000000 _0_ RTR  --- 0 WFRP 52 [0 0 0 0] [energy 99.711422 ei 0.285 es 0.000 et 0.003 er 0.000] ------- [0:255 -1:255 64 0] 
s 421.000000000 _0_ RTR  --- 0 WFRP 52 [0 0 0 0] [energy 99.704228 ei 0.293 es 0.000 et 0.003 er 0.000] ------- [0:255 -1:255 64 0] 
s 431.000000000 _0_ RTR  --- 0 WFRP 52 [0 0 0 0] [energy 99.697032 ei 0.300 es 0.000 et 0.003 er 0.000] ------- [0:255 -1:255 64 0] 
s 441.000000000 _0_ RTR  --- 0 WFRP 52 [0 0 0 0] [energy 99.689837 ei 0.307 es 0.000 et 0.003 er 0.000] ------- [0:255 -1:255 64 0] 
s 451.000000000 _0_ RTR  --- 0 WFRP 52 [0 0 0 0] [energy 99.682643 ei 0.314 es 0.000 et 0.003 er 0.001] ------- [0:255 -1:255 64 0] 
s 461.000000000 _0_ RTR  --- 0 WFRP 52 [0 0 0 0] [energy 99.675449 ei 0.321 es 0.000 et 0.003 er 0.001] ------- [0:255 -1:255 64 0] 
s 471.000000000 _0_ RTR  --- 0 WFRP 52 [0 0 0 0] [energy 99.668253 ei 0.328 es 0.000 et 0.003 er 0.001] ------- [0:255 -1:255 64 0] 
s 481.000000000 _0_ RTR  --- 0 WFRP 52 [0 0 0 0] [energy 99.661059 ei 0.335 es 0.000 et 0.003 er 0.001] ------- [0:255 -1:255 64 0] 
s 491.000000000 _0_ RTR  --- 0 WFRP 52 [0 0 0 0] [energy 99.653863 ei 0.342 es 0.000 et 0.003 er 0.001] ------- [0:255 -1:255 64 0] 
