s 1.000000000 _0_ RTR  --- 0 WFRP 48 [0 0 0 0] [energy 100.000000 ei 0.000 es 0.000 et 0.000 er 0.000] ------- [0:255 -1:255 64 0] 
s 11.000000000 _0_ RTR  --- 0 WFRP 48 [0 0 0 0] [energy 99.999214 ei 0.001 es 0.000 et 0.000 er 0.000] ------- [0:255 -1:255 64 0] 
s 21.000000000 _0_ RTR  --- 0 WFRP 48 [0 0 0 0] [energy 99.992025 ei 0.008 es 0.000 et 0.000 er 0.000] ------- [0:255 -1:255 64 0] 
s 31.000000000 _0_ RTR  --- 0 WFRP 48 [0 0 0 0] [energy 99.984834 ei 0.015 es 0.000 et 0.000 er 0.000] ------- [0:255 -1:255 64 0] 
s 41.000000000 _0_ RTR  --- 0 WFRP 48 [0 0 0 0] [energy 99.977643 ei 0.022 es 0.000 et 0.000 er 0.000] ------- [0:255 -1:255 64 0] 
s 51.000000000 _0_ RTR  --- 0 WFRP 48 [0 0 0 0] [energy 99.970451 ei 0.029 es 0.000 et 0.000 er 0.000] ------- [0:255 -1:255 64 0] 
s 61.000000000 _0_ RTR  --- 0 WFRP 48 [0 0 0 0] [energy 99.963260 ei 0.036 es 0.000 et 0.000 er 0.000] ------- [0:255 -1:255 64 0] 
s 71.000000000 _0_ RTR  --- 0 WFRP 48 [0 0 0 0] [energy 99.956071 ei 0.043 es 0.000 et 0.000 er 0.000] ------- [0:255 -1:255 64 0] 
s 81.000000000 _0_ RTR  --- 0 WFRP 48 [0 0 0 0] [energy 99.948879 ei 0.051 es 0.000 et 0.000 er 0.000] ------- [0:255 -1:255 64 0] 
s 91.000000000 _0_ RTR  --- 0 WFRP 48 [0 0 0 0] [energy 99.941687 ei 0.058 es 0.000 et 0.001 er 0.000] ------- [0:255 -1:255 64 0] 
s 101.000000000 _0_ RTR  --- 0 WFRP 48 [0 0 0 0] [energy 99.934498 ei 0.065 es 0.000 et 0.001 er 0.000] ------- [0:255 -1:255 64 0] 
s 111.000000000 _0_ RTR  --- 0 WFRP 48 [0 0 0 0] [energy 99.927307 ei 0.072 es 0.000 et 0.001 er 0.000] ------- [0:255 -1:255 64 0] 
s 121.000000000 _0_ RTR  --- 0 WFRP 48 [0 0 0 0] [energy 99.920116 ei 0.079 es 0.000 et 0.001 er 0.000] ------- [0:255 -1:255 64 0] 
s 131.000000000 _0_ RTR  --- 0 WFRP 48 [0 0 0 0] [energy 99.912926 ei 0.086 es 0.000 et 0.001 er 0.000] ------- [0:255 -1:255 64 0] 
s 141.000000000 _0_ RTR  --- 0 WFRP 48 [0 0 0 0] [energy 99.905735 ei 0.093 es 0.000 et 0.001 er 0.000] ------- [0:255 -1:255 64 0] 
s 151.000000000 _0_ RTR  --- 0 WFRP 48 [0 0 0 0] [energy 99.898543 ei 0.100 es 0.000 et 0.001 er 0.000] ------- [0:255 -1:255 64 0] 
s 161.000000000 _0_ RTR  --- 0 WFRP 48 [0 0 0 0] [energy 99.891353 ei 0.107 es 0.000 et 0.001 er 0.000] ------- [0:255 -1:255 64 0] 
s 171.000000000 _0_ RTR  --- 0 WFRP 48 [0 0 0 0] [energy 99.884162 ei 0.115 es 0.000 et 0.001 er 0.000] ------- [0:255 -1:255 64 0] 
s 181.000000000 _0_ RTR  --- 0 WFRP 48 [0 0 0 0] [energy 99.876970 ei 0.122 es 0.000 et 0.001 er 0.000] ------- [0:255 -1:255 64 0] 
s 191.000000000 _0_ RTR  --- 0 WFRP 48 [0 0 0 0] [energy 99.869780 ei 0.129 es 0.000 et 0.001 er 0.000] ------- [0:255 -1:255 64 0] 
s 201.000000000 _0_ RTR  --- 0 WFRP 48 [0 0 0 0] [energy 99.862589 ei 0.136 es 0.000 et 0.001 er 0.000] ------- [0:255 -1:255 64 0] 
s 211.000000000 _0_ RTR  --- 0 WFRP 48 [0 0 0 0] [energy 99.855399 ei 0.143 es 0.000 et 0.001 er 0.000] ------- [0:255 -1:255 64 0] 
s 221.000000000 _0_ RTR  --- 0 WFRP 48 [0 0 0 0] [energy 99.848207 ei 0.150 es 0.000 et 0.001 er 0.000] ------- [0:255 -1:255 64 0] 
s 231.000000000 _0_ RTR  --- 0 WFRP 48 [0 0 0 0] [energy 99.841017 ei 0.157 es 0.000 et 0.001 er 0.000] ------- [0:255 -1:255 64 0] 
s 241.000000000 _0_ RTR  --- 0 WFRP 48 [0 0 0 0] [energy 99.833826 ei 0.164 es 0.000 et 0.001 er 0.000] ------- [0:255 -1:255 64 0] 
s 251.000000000 _0_ RTR  --- 0 WFRP 48 [0 0 0 0] [energy 99.826635 ei 0.172 es 0.000 et 0.002 er 0.000] ------- [0:255 -1:255 64 0] 
s 261.000000000 _0_ RTR  --- 0 WFRP 48 [0 0 0 0] [energy 99.819445 ei 0.179 es 0.000 et 0.002 er 0.000] ------- [0:255 -1:255 64 0] 
s 271.000000000 _0_ RTR  --- 0 WFRP 48 [0 0 0 0] [energy 99.812254 ei 0.186 es 0.000 et 0.002 er 0.000] ------- [0:255 -1:255 64 0] 
s 281.000000000 _0_ RTR  --- 0 WFRP 48 [0 0 0 0] [energy 99.805063 ei 0.193 es 0.000 et 0.002 er 0.000] ------- [0:255 -1:255 64 0] 
s 291.000000000 _0_ RTR  --- 0 WFRP 48 [0 0 0 0] [energy 99.797872 ei 0.200 es 0.000 et 0.002 er 0.000] ------- [0:255 -1:255 64 0] 
s 301.000000000 _0_ RTR  --- 0 WFRP 48 [0 0 0 0] [energy 99.790681 ei 0.207 es 0.000 et 0.002 er 0.000] ------- [0:255 -1:255 64 0] 
s 311.000000000 _0_ RTR  --- 0 WFRP 48 [0 0 0 0] [energy 99.783490 ei 0.214 es 0.000 et 0.002 er 0.000] ------- [0:255 -1:255 64 0] 
s 321.000000000 _0_ RTR  --- 0 WFRP 48 [0 0 0 0] [energy 99.776300 ei 0.221 es 0.000 et 0.002 er 0.000] ------- [0:255 -1:255 64 0] 
s 331.000000000 _0_ RTR  --- 0 WFRP 48 [0 0 0 0] [energy 99.769110 ei 0.229 es 0.000 et 0.002 er 0.000] ------- [0:255 -1:255 64 0] 
s 341.000000000 _0_ RTR  --- 0 WFRP 48 [0 0 0 0] [energy 99.761917 ei 0.236 es 0.000 et 0.002 er 0.000] ------- [0:255 -1:255 64 0] 
s 351.000000000 _0_ RTR  --- 0 WFRP 48 [0 0 0 0] [energy 99.754728 ei 0.243 es 0.000 et 0.002 er 0.000] ------- [0:255 -1:255 64 0] 
s 361.000000000 _0_ RTR  --- 0 WFRP 48 [0 0 0 0] [energy 99.747536 ei 0.250 es 0.000 et 0.002 er 0.000] ------- [0:255 -1:255 64 0] 
s 371.000000000 _0_ RTR  --- 0 WFRP 48 [0 0 0 0] [energy 99.740346 ei 0.257 es 0.000 et 0.002 er 0.000] ------- [0:255 -1:255 64 0] 
s 381.000000000 _0_ RTR  --- 0 WFRP 48 [0 0 0 0] [energy 99.733154 ei 0.264 es 0.000 et 0.002 er 0.000] ------- [0:255 -1:255 64 0] 
s 391.000000000 _0_ RTR  --- 0 WFRP 48 [0 0 0 0] [energy 99.725965 ei 0.271 es 0.000 et 0.002 er 0.000] ------- [0:255 -1:255 64 0] 
s 401.000000000 _0_ RTR  --- 0 WFRP 48 [0 0 0 0] [energy 99.718774 ei 0.278 es 0.000 et 0.002 er 0.000] ------- [0:255 -1:255 64 0] 
s 411.000000000 _0_ RTR  --- 0 WFRP 48 [0 0 0 0] [energy 99.711582 ei 0.285 es 0.000 et 0.003 er 0.000] ------- [0:255 -1:255 64 0] 
s 421.000000000 _0_ RTR  --- 0 WFRP 48 [0 0 0 0] [energy 99.704392 ei 0.293 es 0.000 et 0.003 er 0.000] ------- [0:255 -1:255 64 0] 
s 431.000000000 _0_ RTR  --- 0 WFRP 48 [0 0 0 0] [energy 99.697200 ei 0.300 es 0.000 et 0.003 er 0.000] ------- [0:255 -1:255 64 0] 
s 441.000000000 _0_ RTR  --- 0 WFRP 48 [0 0 0 0] [energy 99.690010 ei 0.307 es 0.000 et 0.003 er 0.000] ------- [0:255 -1:255 64 0] 
s 451.000000000 _0_ RTR  --- 0 WFRP 48 [0 0 0 0] [energy 99.682820 ei 0.314 es 0.000 et 0.003 er 0.001] ------- [0:255 -1:255 64 0] 
s 461.000000000 _0_ RTR  --- 0 WFRP 48 [0 0 0 0] [energy 99.675629 ei 0.321 es 0.000 et 0.003 er 0.001] ------- [0:255 -1:255 64 0] 
s 471.000000000 _0_ RTR  --- 0 WFRP 48 [0 0 0 0] [energy 99.668438 ei 0.328 es 0.000 et 0.003 er 0.001] ------- [0:255 -1:255 64 0] 
s 481.000000000 _0_ RTR  --- 0 WFRP 48 [0 0 0 0] [energy 99.661247 ei 0.335 es 0.000 et 0.003 er 0.001] ------- [0:255 -1:255 64 0] 
s 491.000000000 _0_ RTR  --- 0 WFRP 48 [0 0 0 0] [energy 99.654055 ei 0.342 es 0.000 et 0.003 er 0.001] ------- [0:255 -1:255 64 0] 
