s 0.000000000 _0_ RTR  --- 0 XFXVanets 48 [0 0 0 0] ------- [0:255 -1:255 1 0] 
s 0.000000000 _1_ RTR  --- 0 XFXVanets 48 [0 0 0 0] ------- [1:255 -1:255 1 0] 
s 0.000000000 _2_ RTR  --- 0 XFXVanets 48 [0 0 0 0] ------- [2:255 -1:255 1 0] 
s 0.000000000 _3_ RTR  --- 0 XFXVanets 48 [0 0 0 0] ------- [3:255 -1:255 1 0] 
s 0.000000000 _4_ RTR  --- 0 XFXVanets 48 [0 0 0 0] ------- [4:255 -1:255 1 0] 
s 0.000000000 _5_ RTR  --- 0 XFXVanets 48 [0 0 0 0] ------- [5:255 -1:255 1 0] 
s 0.000000000 _6_ RTR  --- 0 XFXVanets 48 [0 0 0 0] ------- [6:255 -1:255 1 0] 
r 0.000988000 _2_ RTR  --- 0 XFXVanets 48 [0 ffffffff 1 800] ------- [1:255 -1:255 1 0] 
r 0.000988000 _6_ RTR  --- 0 XFXVanets 48 [0 ffffffff 1 800] ------- [1:255 -1:255 1 0] 
r 0.001248000 _0_ RTR  --- 0 XFXVanets 48 [0 ffffffff 3 800] ------- [3:255 -1:255 1 0] 
r 0.002006000 _2_ RTR  --- 0 XFXVanets 48 [0 ffffffff 6 800] ------- [6:255 -1:255 1 0] 
r 0.002006000 _1_ RTR  --- 0 XFXVanets 48 [0 ffffffff 6 800] ------- [6:255 -1:255 1 0] 
r 0.002306000 _3_ RTR  --- 0 XFXVanets 48 [0 ffffffff 0 800] ------- [0:255 -1:255 1 0] 
r 0.003304000 _1_ RTR  --- 0 XFXVanets 48 [0 ffffffff 2 800] ------- [2:255 -1:255 1 0] 
r 0.003304000 _6_ RTR  --- 0 XFXVanets 48 [0 ffffffff 2 800] ------- [2:255 -1:255 1 0] 
M 1.00000 0 (250.00, 250.00, 10.00), (250.00, 250.00), 10.00
M 1.00000 1 (5.00, 5.00, 10.00), (5.00, 5.00), 10.00
M 1.00000 4 (150.00, 150.00, 10.00), (150.00, 150.00), 10.00
M 1.00000 2 (5.00, 5.00, 10.00), (5.00, 5.00), 10.00
M 1.00000 3 (250.00, 250.00, 10.00), (250.00, 250.00), 10.00
M 1.00000 5 (180.00, 180.00, 10.00), (180.00, 180.00), 10.00
M 1.00000 6 (5.00, 5.00, 10.00), (5.00, 5.00), 10.00
s 1.000000000 _2_ AGT  --- 0 cbr 1000 [0 0 0 0] ------- [2:0 0:0 32 0] [0] 0 0
r 1.000000000 _2_ RTR  --- 0 cbr 1000 [0 0 0 0] ------- [2:0 0:0 32 0] [0] 0 0
s 1.000000000 _3_ AGT  --- 1 cbr 1000 [0 0 0 0] ------- [3:0 1:0 32 0] [0] 0 0
r 1.000000000 _3_ RTR  --- 1 cbr 1000 [0 0 0 0] ------- [3:0 1:0 32 0] [0] 0 0
s 1.000000000 _5_ AGT  --- 2 cbr 1000 [0 0 0 0] ------- [5:0 4:0 32 0] [0] 0 0
r 1.000000000 _5_ RTR  --- 2 cbr 1000 [0 0 0 0] ------- [5:0 4:0 32 0] [0] 0 0
s 1.000000000 _0_ RTR  --- 0 XFXVanets 48 [0 0 0 0] ------- [0:255 -1:255 1 0] 
s 1.000000000 _1_ RTR  --- 0 XFXVanets 48 [0 0 0 0] ------- [1:255 -1:255 1 0] 
s 1.000000000 _2_ RTR  --- 0 XFXVanets 48 [0 0 0 0] ------- [2:255 -1:255 1 0] 
s 1.000000000 _3_ RTR  --- 0 XFXVanets 48 [0 0 0 0] ------- [3:255 -1:255 1 0] 
s 1.000000000 _4_ RTR  --- 0 XFXVanets 48 [0 0 0 0] ------- [4:255 -1:255 1 0] 
s 1.000000000 _5_ RTR  --- 0 XFXVanets 48 [0 0 0 0] ------- [5:255 -1:255 1 0] 
s 1.000000000 _6_ RTR  --- 0 XFXVanets 48 [0 0 0 0] ------- [6:255 -1:255 1 0] 
r 1.001188000 _1_ RTR  --- 0 XFXVanets 48 [0 ffffffff 2 800] ------- [2:255 -1:255 1 0] 
r 1.001188000 _6_ RTR  --- 0 XFXVanets 48 [0 ffffffff 2 800] ------- [2:255 -1:255 1 0] 
r 1.002166000 _2_ RTR  --- 0 XFXVanets 48 [0 ffffffff 6 800] ------- [6:255 -1:255 1 0] 
r 1.002166000 _1_ RTR  --- 0 XFXVanets 48 [0 ffffffff 6 800] ------- [6:255 -1:255 1 0] 
r 1.003104000 _2_ RTR  --- 0 XFXVanets 48 [0 ffffffff 1 800] ------- [1:255 -1:255 1 0] 
r 1.003104000 _6_ RTR  --- 0 XFXVanets 48 [0 ffffffff 1 800] ------- [1:255 -1:255 1 0] 
s 2.000000000 _2_ AGT  --- 3 cbr 1000 [0 0 0 0] ------- [2:0 0:0 32 0] [1] 0 0
r 2.000000000 _2_ RTR  --- 3 cbr 1000 [0 0 0 0] ------- [2:0 0:0 32 0] [1] 0 0
s 2.000000000 _3_ AGT  --- 4 cbr 1000 [0 0 0 0] ------- [3:0 1:0 32 0] [1] 0 0
r 2.000000000 _3_ RTR  --- 4 cbr 1000 [0 0 0 0] ------- [3:0 1:0 32 0] [1] 0 0
s 2.000000000 _5_ AGT  --- 5 cbr 1000 [0 0 0 0] ------- [5:0 4:0 32 0] [1] 0 0
r 2.000000000 _5_ RTR  --- 5 cbr 1000 [0 0 0 0] ------- [5:0 4:0 32 0] [1] 0 0
s 2.000000000 _0_ RTR  --- 0 XFXVanets 48 [0 0 0 0] ------- [0:255 -1:255 1 0] 
s 2.000000000 _1_ RTR  --- 0 XFXVanets 48 [0 0 0 0] ------- [1:255 -1:255 1 0] 
s 2.000000000 _2_ RTR  --- 0 XFXVanets 48 [0 0 0 0] ------- [2:255 -1:255 1 0] 
s 2.000000000 _3_ RTR  --- 0 XFXVanets 48 [0 0 0 0] ------- [3:255 -1:255 1 0] 
s 2.000000000 _4_ RTR  --- 0 XFXVanets 48 [0 0 0 0] ------- [4:255 -1:255 1 0] 
s 2.000000000 _5_ RTR  --- 0 XFXVanets 48 [0 0 0 0] ------- [5:255 -1:255 1 0] 
s 2.000000000 _6_ RTR  --- 0 XFXVanets 48 [0 0 0 0] ------- [6:255 -1:255 1 0] 
r 2.000988000 _0_ RTR  --- 0 XFXVanets 48 [0 ffffffff 3 800] ------- [3:255 -1:255 1 0] 
r 2.001088000 _2_ RTR  --- 0 XFXVanets 48 [0 ffffffff 6 800] ------- [6:255 -1:255 1 0] 
r 2.001088000 _1_ RTR  --- 0 XFXVanets 48 [0 ffffffff 6 800] ------- [6:255 -1:255 1 0] 
r 2.002206000 _1_ RTR  --- 0 XFXVanets 48 [0 ffffffff 2 800] ------- [2:255 -1:255 1 0] 
r 2.002206000 _6_ RTR  --- 0 XFXVanets 48 [0 ffffffff 2 800] ------- [2:255 -1:255 1 0] 
r 2.002246000 _3_ RTR  --- 0 XFXVanets 48 [0 ffffffff 0 800] ------- [0:255 -1:255 1 0] 
r 2.003284000 _2_ RTR  --- 0 XFXVanets 48 [0 ffffffff 1 800] ------- [1:255 -1:255 1 0] 
r 2.003284000 _6_ RTR  --- 0 XFXVanets 48 [0 ffffffff 1 800] ------- [1:255 -1:255 1 0] 
s 3.000000000 _2_ AGT  --- 6 cbr 1000 [0 0 0 0] ------- [2:0 0:0 32 0] [2] 0 0
r 3.000000000 _2_ RTR  --- 6 cbr 1000 [0 0 0 0] ------- [2:0 0:0 32 0] [2] 0 0
s 3.000000000 _3_ AGT  --- 7 cbr 1000 [0 0 0 0] ------- [3:0 1:0 32 0] [2] 0 0
r 3.000000000 _3_ RTR  --- 7 cbr 1000 [0 0 0 0] ------- [3:0 1:0 32 0] [2] 0 0
s 3.000000000 _5_ AGT  --- 8 cbr 1000 [0 0 0 0] ------- [5:0 4:0 32 0] [2] 0 0
r 3.000000000 _5_ RTR  --- 8 cbr 1000 [0 0 0 0] ------- [5:0 4:0 32 0] [2] 0 0
s 3.000000000 _0_ RTR  --- 0 XFXVanets 48 [0 0 0 0] ------- [0:255 -1:255 1 0] 
s 3.000000000 _1_ RTR  --- 0 XFXVanets 48 [0 0 0 0] ------- [1:255 -1:255 1 0] 
s 3.000000000 _2_ RTR  --- 0 XFXVanets 48 [0 0 0 0] ------- [2:255 -1:255 1 0] 
s 3.000000000 _3_ RTR  --- 0 XFXVanets 48 [0 0 0 0] ------- [3:255 -1:255 1 0] 
s 3.000000000 _4_ RTR  --- 0 XFXVanets 48 [0 0 0 0] ------- [4:255 -1:255 1 0] 
s 3.000000000 _5_ RTR  --- 0 XFXVanets 48 [0 0 0 0] ------- [5:255 -1:255 1 0] 
s 3.000000000 _6_ RTR  --- 0 XFXVanets 48 [0 0 0 0] ------- [6:255 -1:255 1 0] 
r 3.001008000 _2_ RTR  --- 0 XFXVanets 48 [0 ffffffff 1 800] ------- [1:255 -1:255 1 0] 
r 3.001008000 _6_ RTR  --- 0 XFXVanets 48 [0 ffffffff 1 800] ------- [1:255 -1:255 1 0] 
r 3.001288000 _0_ RTR  --- 0 XFXVanets 48 [0 ffffffff 3 800] ------- [3:255 -1:255 1 0] 
r 3.001966000 _1_ RTR  --- 0 XFXVanets 48 [0 ffffffff 2 800] ------- [2:255 -1:255 1 0] 
r 3.001966000 _6_ RTR  --- 0 XFXVanets 48 [0 ffffffff 2 800] ------- [2:255 -1:255 1 0] 
r 3.002426000 _3_ RTR  --- 0 XFXVanets 48 [0 ffffffff 0 800] ------- [0:255 -1:255 1 0] 
r 3.002924000 _2_ RTR  --- 0 XFXVanets 48 [0 ffffffff 6 800] ------- [6:255 -1:255 1 0] 
r 3.002924000 _1_ RTR  --- 0 XFXVanets 48 [0 ffffffff 6 800] ------- [6:255 -1:255 1 0] 
s 4.000000000 _2_ AGT  --- 9 cbr 1000 [0 0 0 0] ------- [2:0 0:0 32 0] [3] 0 0
r 4.000000000 _2_ RTR  --- 9 cbr 1000 [0 0 0 0] ------- [2:0 0:0 32 0] [3] 0 0
s 4.000000000 _3_ AGT  --- 10 cbr 1000 [0 0 0 0] ------- [3:0 1:0 32 0] [3] 0 0
r 4.000000000 _3_ RTR  --- 10 cbr 1000 [0 0 0 0] ------- [3:0 1:0 32 0] [3] 0 0
s 4.000000000 _5_ AGT  --- 11 cbr 1000 [0 0 0 0] ------- [5:0 4:0 32 0] [3] 0 0
r 4.000000000 _5_ RTR  --- 11 cbr 1000 [0 0 0 0] ------- [5:0 4:0 32 0] [3] 0 0
s 4.000000000 _0_ RTR  --- 0 XFXVanets 48 [0 0 0 0] ------- [0:255 -1:255 1 0] 
s 4.000000000 _1_ RTR  --- 0 XFXVanets 48 [0 0 0 0] ------- [1:255 -1:255 1 0] 
s 4.000000000 _2_ RTR  --- 0 XFXVanets 48 [0 0 0 0] ------- [2:255 -1:255 1 0] 
s 4.000000000 _3_ RTR  --- 0 XFXVanets 48 [0 0 0 0] ------- [3:255 -1:255 1 0] 
s 4.000000000 _4_ RTR  --- 0 XFXVanets 48 [0 0 0 0] ------- [4:255 -1:255 1 0] 
s 4.000000000 _5_ RTR  --- 0 XFXVanets 48 [0 0 0 0] ------- [5:255 -1:255 1 0] 
s 4.000000000 _6_ RTR  --- 0 XFXVanets 48 [0 0 0 0] ------- [6:255 -1:255 1 0] 
r 4.000948000 _1_ RTR  --- 0 XFXVanets 48 [0 ffffffff 2 800] ------- [2:255 -1:255 1 0] 
r 4.000948000 _6_ RTR  --- 0 XFXVanets 48 [0 ffffffff 2 800] ------- [2:255 -1:255 1 0] 
r 4.001028000 _3_ RTR  --- 0 XFXVanets 48 [0 ffffffff 0 800] ------- [0:255 -1:255 1 0] 
r 4.001866000 _2_ RTR  --- 0 XFXVanets 48 [0 ffffffff 6 800] ------- [6:255 -1:255 1 0] 
r 4.001866000 _1_ RTR  --- 0 XFXVanets 48 [0 ffffffff 6 800] ------- [6:255 -1:255 1 0] 
r 4.002086000 _0_ RTR  --- 0 XFXVanets 48 [0 ffffffff 3 800] ------- [3:255 -1:255 1 0] 
r 4.003044000 _2_ RTR  --- 0 XFXVanets 48 [0 ffffffff 1 800] ------- [1:255 -1:255 1 0] 
r 4.003044000 _6_ RTR  --- 0 XFXVanets 48 [0 ffffffff 1 800] ------- [1:255 -1:255 1 0] 
s 5.000000000 _2_ AGT  --- 12 cbr 1000 [0 0 0 0] ------- [2:0 0:0 32 0] [4] 0 0
r 5.000000000 _2_ RTR  --- 12 cbr 1000 [0 0 0 0] ------- [2:0 0:0 32 0] [4] 0 0
s 5.000000000 _3_ AGT  --- 13 cbr 1000 [0 0 0 0] ------- [3:0 1:0 32 0] [4] 0 0
r 5.000000000 _3_ RTR  --- 13 cbr 1000 [0 0 0 0] ------- [3:0 1:0 32 0] [4] 0 0
s 5.000000000 _5_ AGT  --- 14 cbr 1000 [0 0 0 0] ------- [5:0 4:0 32 0] [4] 0 0
r 5.000000000 _5_ RTR  --- 14 cbr 1000 [0 0 0 0] ------- [5:0 4:0 32 0] [4] 0 0
s 5.000000000 _0_ RTR  --- 0 XFXVanets 48 [0 0 0 0] ------- [0:255 -1:255 1 0] 
s 5.000000000 _1_ RTR  --- 0 XFXVanets 48 [0 0 0 0] ------- [1:255 -1:255 1 0] 
s 5.000000000 _2_ RTR  --- 0 XFXVanets 48 [0 0 0 0] ------- [2:255 -1:255 1 0] 
s 5.000000000 _3_ RTR  --- 0 XFXVanets 48 [0 0 0 0] ------- [3:255 -1:255 1 0] 
s 5.000000000 _4_ RTR  --- 0 XFXVanets 48 [0 0 0 0] ------- [4:255 -1:255 1 0] 
s 5.000000000 _5_ RTR  --- 0 XFXVanets 48 [0 0 0 0] ------- [5:255 -1:255 1 0] 
s 5.000000000 _6_ RTR  --- 0 XFXVanets 48 [0 0 0 0] ------- [6:255 -1:255 1 0] 
r 5.001028000 _1_ RTR  --- 0 XFXVanets 48 [0 ffffffff 2 800] ------- [2:255 -1:255 1 0] 
r 5.001028000 _6_ RTR  --- 0 XFXVanets 48 [0 ffffffff 2 800] ------- [2:255 -1:255 1 0] 
r 5.001148000 _3_ RTR  --- 0 XFXVanets 48 [0 ffffffff 0 800] ------- [0:255 -1:255 1 0] 
r 5.001946000 _2_ RTR  --- 0 XFXVanets 48 [0 ffffffff 1 800] ------- [1:255 -1:255 1 0] 
r 5.001946000 _6_ RTR  --- 0 XFXVanets 48 [0 ffffffff 1 800] ------- [1:255 -1:255 1 0] 
r 5.002106000 _0_ RTR  --- 0 XFXVanets 48 [0 ffffffff 3 800] ------- [3:255 -1:255 1 0] 
r 5.003084000 _2_ RTR  --- 0 XFXVanets 48 [0 ffffffff 6 800] ------- [6:255 -1:255 1 0] 
r 5.003084000 _1_ RTR  --- 0 XFXVanets 48 [0 ffffffff 6 800] ------- [6:255 -1:255 1 0] 
M 6.00000 2 (5.00, 5.00, 10.00), (25.00, 25.00), 10.00
M 6.00000 3 (250.00, 250.00, 10.00), (150.00, 150.00), 10.00
M 6.00000 5 (180.00, 180.00, 10.00), (160.00, 160.00), 10.00
M 6.00000 6 (5.00, 5.00, 10.00), (150.00, 150.00), 10.00
s 6.000000000 _2_ AGT  --- 15 cbr 1000 [0 0 0 0] ------- [2:0 0:0 32 0] [5] 0 0
r 6.000000000 _2_ RTR  --- 15 cbr 1000 [0 0 0 0] ------- [2:0 0:0 32 0] [5] 0 0
s 6.000000000 _3_ AGT  --- 16 cbr 1000 [0 0 0 0] ------- [3:0 1:0 32 0] [5] 0 0
r 6.000000000 _3_ RTR  --- 16 cbr 1000 [0 0 0 0] ------- [3:0 1:0 32 0] [5] 0 0
s 6.000000000 _5_ AGT  --- 17 cbr 1000 [0 0 0 0] ------- [5:0 4:0 32 0] [5] 0 0
r 6.000000000 _5_ RTR  --- 17 cbr 1000 [0 0 0 0] ------- [5:0 4:0 32 0] [5] 0 0
s 6.000000000 _0_ RTR  --- 0 XFXVanets 48 [0 0 0 0] ------- [0:255 -1:255 1 0] 
s 6.000000000 _1_ RTR  --- 0 XFXVanets 48 [0 0 0 0] ------- [1:255 -1:255 1 0] 
s 6.000000000 _2_ RTR  --- 0 XFXVanets 48 [0 0 0 0] ------- [2:255 -1:255 1 0] 
s 6.000000000 _3_ RTR  --- 0 XFXVanets 48 [0 0 0 0] ------- [3:255 -1:255 1 0] 
s 6.000000000 _4_ RTR  --- 0 XFXVanets 48 [0 0 0 0] ------- [4:255 -1:255 1 0] 
s 6.000000000 _5_ RTR  --- 0 XFXVanets 48 [0 0 0 0] ------- [5:255 -1:255 1 0] 
s 6.000000000 _6_ RTR  --- 0 XFXVanets 48 [0 0 0 0] ------- [6:255 -1:255 1 0] 
r 6.001248000 _0_ RTR  --- 0 XFXVanets 48 [0 ffffffff 3 800] ------- [3:255 -1:255 1 0] 
r 6.002386000 _3_ RTR  --- 0 XFXVanets 48 [0 ffffffff 0 800] ------- [0:255 -1:255 1 0] 
r 6.002790000 _2_ RTR  --- 0 XFXVanets 48 [0 ffffffff 6 800] ------- [6:255 -1:255 1 0] 
r 6.002790000 _1_ RTR  --- 0 XFXVanets 48 [0 ffffffff 6 800] ------- [6:255 -1:255 1 0] 
s 7.000000000 _2_ AGT  --- 18 cbr 1000 [0 0 0 0] ------- [2:0 0:0 32 0] [6] 0 0
r 7.000000000 _2_ RTR  --- 18 cbr 1000 [0 0 0 0] ------- [2:0 0:0 32 0] [6] 0 0
s 7.000000000 _3_ AGT  --- 19 cbr 1000 [0 0 0 0] ------- [3:0 1:0 32 0] [6] 0 0
r 7.000000000 _3_ RTR  --- 19 cbr 1000 [0 0 0 0] ------- [3:0 1:0 32 0] [6] 0 0
s 7.000000000 _5_ AGT  --- 20 cbr 1000 [0 0 0 0] ------- [5:0 4:0 32 0] [6] 0 0
r 7.000000000 _5_ RTR  --- 20 cbr 1000 [0 0 0 0] ------- [5:0 4:0 32 0] [6] 0 0
s 7.000000000 _0_ RTR  --- 0 XFXVanets 48 [0 0 0 0] ------- [0:255 -1:255 1 0] 
s 7.000000000 _1_ RTR  --- 0 XFXVanets 48 [0 0 0 0] ------- [1:255 -1:255 1 0] 
s 7.000000000 _2_ RTR  --- 0 XFXVanets 48 [0 0 0 0] ------- [2:255 -1:255 1 0] 
s 7.000000000 _3_ RTR  --- 0 XFXVanets 48 [0 0 0 0] ------- [3:255 -1:255 1 0] 
s 7.000000000 _4_ RTR  --- 0 XFXVanets 48 [0 0 0 0] ------- [4:255 -1:255 1 0] 
s 7.000000000 _5_ RTR  --- 0 XFXVanets 48 [0 0 0 0] ------- [5:255 -1:255 1 0] 
s 7.000000000 _6_ RTR  --- 0 XFXVanets 48 [0 0 0 0] ------- [6:255 -1:255 1 0] 
r 7.000948033 _2_ RTR  --- 0 XFXVanets 48 [0 ffffffff 1 800] ------- [1:255 -1:255 1 0] 
r 7.000948033 _6_ RTR  --- 0 XFXVanets 48 [0 ffffffff 1 800] ------- [1:255 -1:255 1 0] 
r 7.001168033 _3_ RTR  --- 0 XFXVanets 48 [0 ffffffff 0 800] ------- [0:255 -1:255 1 0] 
r 7.001986033 _6_ RTR  --- 0 XFXVanets 48 [0 ffffffff 2 800] ------- [2:255 -1:255 1 0] 
r 7.001986067 _1_ RTR  --- 0 XFXVanets 48 [0 ffffffff 2 800] ------- [2:255 -1:255 1 0] 
r 7.002206067 _0_ RTR  --- 0 XFXVanets 48 [0 ffffffff 3 800] ------- [3:255 -1:255 1 0] 
r 7.003244033 _2_ RTR  --- 0 XFXVanets 48 [0 ffffffff 6 800] ------- [6:255 -1:255 1 0] 
r 7.003244067 _1_ RTR  --- 0 XFXVanets 48 [0 ffffffff 6 800] ------- [6:255 -1:255 1 0] 
s 8.000000000 _2_ AGT  --- 21 cbr 1000 [0 0 0 0] ------- [2:0 0:0 32 0] [7] 0 0
r 8.000000000 _2_ RTR  --- 21 cbr 1000 [0 0 0 0] ------- [2:0 0:0 32 0] [7] 0 0
s 8.000000000 _3_ AGT  --- 22 cbr 1000 [0 0 0 0] ------- [3:0 1:0 32 0] [7] 0 0
r 8.000000000 _3_ RTR  --- 22 cbr 1000 [0 0 0 0] ------- [3:0 1:0 32 0] [7] 0 0
s 8.000000000 _5_ AGT  --- 23 cbr 1000 [0 0 0 0] ------- [5:0 4:0 32 0] [7] 0 0
r 8.000000000 _5_ RTR  --- 23 cbr 1000 [0 0 0 0] ------- [5:0 4:0 32 0] [7] 0 0
s 8.000000000 _0_ RTR  --- 0 XFXVanets 48 [0 0 0 0] ------- [0:255 -1:255 1 0] 
s 8.000000000 _1_ RTR  --- 0 XFXVanets 48 [0 0 0 0] ------- [1:255 -1:255 1 0] 
s 8.000000000 _2_ RTR  --- 0 XFXVanets 48 [0 0 0 0] ------- [2:255 -1:255 1 0] 
s 8.000000000 _3_ RTR  --- 0 XFXVanets 48 [0 0 0 0] ------- [3:255 -1:255 1 0] 
s 8.000000000 _4_ RTR  --- 0 XFXVanets 48 [0 0 0 0] ------- [4:255 -1:255 1 0] 
s 8.000000000 _5_ RTR  --- 0 XFXVanets 48 [0 0 0 0] ------- [5:255 -1:255 1 0] 
s 8.000000000 _6_ RTR  --- 0 XFXVanets 48 [0 0 0 0] ------- [6:255 -1:255 1 0] 
r 8.001208000 _2_ RTR  --- 0 XFXVanets 48 [0 ffffffff 6 800] ------- [6:255 -1:255 1 0] 
r 8.002266000 _6_ RTR  --- 0 XFXVanets 48 [0 ffffffff 2 800] ------- [2:255 -1:255 1 0] 
s 9.000000000 _2_ AGT  --- 24 cbr 1000 [0 0 0 0] ------- [2:0 0:0 32 0] [8] 0 0
r 9.000000000 _2_ RTR  --- 24 cbr 1000 [0 0 0 0] ------- [2:0 0:0 32 0] [8] 0 0
s 9.000000000 _3_ AGT  --- 25 cbr 1000 [0 0 0 0] ------- [3:0 1:0 32 0] [8] 0 0
r 9.000000000 _3_ RTR  --- 25 cbr 1000 [0 0 0 0] ------- [3:0 1:0 32 0] [8] 0 0
s 9.000000000 _5_ AGT  --- 26 cbr 1000 [0 0 0 0] ------- [5:0 4:0 32 0] [8] 0 0
r 9.000000000 _5_ RTR  --- 26 cbr 1000 [0 0 0 0] ------- [5:0 4:0 32 0] [8] 0 0
s 9.000000000 _0_ RTR  --- 0 XFXVanets 48 [0 0 0 0] ------- [0:255 -1:255 1 0] 
s 9.000000000 _1_ RTR  --- 0 XFXVanets 48 [0 0 0 0] ------- [1:255 -1:255 1 0] 
s 9.000000000 _2_ RTR  --- 0 XFXVanets 48 [0 0 0 0] ------- [2:255 -1:255 1 0] 
s 9.000000000 _3_ RTR  --- 0 XFXVanets 48 [0 0 0 0] ------- [3:255 -1:255 1 0] 
s 9.000000000 _4_ RTR  --- 0 XFXVanets 48 [0 0 0 0] ------- [4:255 -1:255 1 0] 
s 9.000000000 _5_ RTR  --- 0 XFXVanets 48 [0 0 0 0] ------- [5:255 -1:255 1 0] 
s 9.000000000 _6_ RTR  --- 0 XFXVanets 48 [0 0 0 0] ------- [6:255 -1:255 1 0] 
r 9.001048006 _2_ RTR  --- 0 XFXVanets 48 [0 ffffffff 6 800] ------- [6:255 -1:255 1 0] 
r 9.002026011 _6_ RTR  --- 0 XFXVanets 48 [0 ffffffff 2 800] ------- [2:255 -1:255 1 0] 
s 10.000000000 _2_ AGT  --- 27 cbr 1000 [0 0 0 0] ------- [2:0 0:0 32 0] [9] 0 0
r 10.000000000 _2_ RTR  --- 27 cbr 1000 [0 0 0 0] ------- [2:0 0:0 32 0] [9] 0 0
s 10.000000000 _3_ AGT  --- 28 cbr 1000 [0 0 0 0] ------- [3:0 1:0 32 0] [9] 0 0
r 10.000000000 _3_ RTR  --- 28 cbr 1000 [0 0 0 0] ------- [3:0 1:0 32 0] [9] 0 0
s 10.000000000 _5_ AGT  --- 29 cbr 1000 [0 0 0 0] ------- [5:0 4:0 32 0] [9] 0 0
r 10.000000000 _5_ RTR  --- 29 cbr 1000 [0 0 0 0] ------- [5:0 4:0 32 0] [9] 0 0
s 10.000000000 _0_ RTR  --- 0 XFXVanets 48 [0 0 0 0] ------- [0:255 -1:255 1 0] 
s 10.000000000 _1_ RTR  --- 0 XFXVanets 48 [0 0 0 0] ------- [1:255 -1:255 1 0] 
s 10.000000000 _2_ RTR  --- 0 XFXVanets 48 [0 0 0 0] ------- [2:255 -1:255 1 0] 
s 10.000000000 _3_ RTR  --- 0 XFXVanets 48 [0 0 0 0] ------- [3:255 -1:255 1 0] 
s 10.000000000 _4_ RTR  --- 0 XFXVanets 48 [0 0 0 0] ------- [4:255 -1:255 1 0] 
s 10.000000000 _5_ RTR  --- 0 XFXVanets 48 [0 0 0 0] ------- [5:255 -1:255 1 0] 
s 10.000000000 _6_ RTR  --- 0 XFXVanets 48 [0 0 0 0] ------- [6:255 -1:255 1 0] 
r 10.001328039 _2_ RTR  --- 0 XFXVanets 48 [0 ffffffff 6 800] ------- [6:255 -1:255 1 0] 
r 10.002366078 _6_ RTR  --- 0 XFXVanets 48 [0 ffffffff 2 800] ------- [2:255 -1:255 1 0] 
s 11.000000000 _2_ AGT  --- 30 cbr 1000 [0 0 0 0] ------- [2:0 0:0 32 0] [10] 0 0
r 11.000000000 _2_ RTR  --- 30 cbr 1000 [0 0 0 0] ------- [2:0 0:0 32 0] [10] 0 0
s 11.000000000 _3_ AGT  --- 31 cbr 1000 [0 0 0 0] ------- [3:0 1:0 32 0] [10] 0 0
r 11.000000000 _3_ RTR  --- 31 cbr 1000 [0 0 0 0] ------- [3:0 1:0 32 0] [10] 0 0
s 11.000000000 _5_ AGT  --- 32 cbr 1000 [0 0 0 0] ------- [5:0 4:0 32 0] [10] 0 0
r 11.000000000 _5_ RTR  --- 32 cbr 1000 [0 0 0 0] ------- [5:0 4:0 32 0] [10] 0 0
s 11.000000000 _0_ RTR  --- 0 XFXVanets 48 [0 0 0 0] ------- [0:255 -1:255 1 0] 
s 11.000000000 _1_ RTR  --- 0 XFXVanets 48 [0 0 0 0] ------- [1:255 -1:255 1 0] 
s 11.000000000 _2_ RTR  --- 0 XFXVanets 48 [0 0 0 0] ------- [2:255 -1:255 1 0] 
s 11.000000000 _3_ RTR  --- 0 XFXVanets 48 [0 0 0 0] ------- [3:255 -1:255 1 0] 
s 11.000000000 _4_ RTR  --- 0 XFXVanets 48 [0 0 0 0] ------- [4:255 -1:255 1 0] 
s 11.000000000 _5_ RTR  --- 0 XFXVanets 48 [0 0 0 0] ------- [5:255 -1:255 1 0] 
s 11.000000000 _6_ RTR  --- 0 XFXVanets 48 [0 0 0 0] ------- [6:255 -1:255 1 0] 
M 12.00000 2 (25.00, 25.00, 10.00), (150.00, 150.00), 10.00
M 12.00000 3 (207.57, 207.57, 10.00), (180.00, 180.00), 10.00
M 12.00000 5 (160.00, 160.00, 10.00), (250.00, 250.00), 10.00
M 12.00000 6 (47.43, 47.43, 10.00), (250.00, 250.00), 10.00
s 12.000000000 _2_ AGT  --- 33 cbr 1000 [0 0 0 0] ------- [2:0 0:0 32 0] [11] 0 0
r 12.000000000 _2_ RTR  --- 33 cbr 1000 [0 0 0 0] ------- [2:0 0:0 32 0] [11] 0 0
s 12.000000000 _3_ AGT  --- 34 cbr 1000 [0 0 0 0] ------- [3:0 1:0 32 0] [11] 0 0
r 12.000000000 _3_ RTR  --- 34 cbr 1000 [0 0 0 0] ------- [3:0 1:0 32 0] [11] 0 0
s 12.000000000 _5_ AGT  --- 35 cbr 1000 [0 0 0 0] ------- [5:0 4:0 32 0] [11] 0 0
r 12.000000000 _5_ RTR  --- 35 cbr 1000 [0 0 0 0] ------- [5:0 4:0 32 0] [11] 0 0
s 12.000000000 _0_ RTR  --- 0 XFXVanets 48 [0 0 0 0] ------- [0:255 -1:255 1 0] 
s 12.000000000 _1_ RTR  --- 0 XFXVanets 48 [0 0 0 0] ------- [1:255 -1:255 1 0] 
s 12.000000000 _2_ RTR  --- 0 XFXVanets 48 [0 0 0 0] ------- [2:255 -1:255 1 0] 
s 12.000000000 _3_ RTR  --- 0 XFXVanets 48 [0 0 0 0] ------- [3:255 -1:255 1 0] 
s 12.000000000 _4_ RTR  --- 0 XFXVanets 48 [0 0 0 0] ------- [4:255 -1:255 1 0] 
s 12.000000000 _5_ RTR  --- 0 XFXVanets 48 [0 0 0 0] ------- [5:255 -1:255 1 0] 
s 12.000000000 _6_ RTR  --- 0 XFXVanets 48 [0 0 0 0] ------- [6:255 -1:255 1 0] 
s 13.000000000 _2_ AGT  --- 36 cbr 1000 [0 0 0 0] ------- [2:0 0:0 32 0] [12] 0 0
r 13.000000000 _2_ RTR  --- 36 cbr 1000 [0 0 0 0] ------- [2:0 0:0 32 0] [12] 0 0
s 13.000000000 _3_ AGT  --- 37 cbr 1000 [0 0 0 0] ------- [3:0 1:0 32 0] [12] 0 0
r 13.000000000 _3_ RTR  --- 37 cbr 1000 [0 0 0 0] ------- [3:0 1:0 32 0] [12] 0 0
s 13.000000000 _5_ AGT  --- 38 cbr 1000 [0 0 0 0] ------- [5:0 4:0 32 0] [12] 0 0
r 13.000000000 _5_ RTR  --- 38 cbr 1000 [0 0 0 0] ------- [5:0 4:0 32 0] [12] 0 0
s 13.000000000 _0_ RTR  --- 0 XFXVanets 48 [0 0 0 0] ------- [0:255 -1:255 1 0] 
s 13.000000000 _1_ RTR  --- 0 XFXVanets 48 [0 0 0 0] ------- [1:255 -1:255 1 0] 
s 13.000000000 _2_ RTR  --- 0 XFXVanets 48 [0 0 0 0] ------- [2:255 -1:255 1 0] 
s 13.000000000 _3_ RTR  --- 0 XFXVanets 48 [0 0 0 0] ------- [3:255 -1:255 1 0] 
s 13.000000000 _4_ RTR  --- 0 XFXVanets 48 [0 0 0 0] ------- [4:255 -1:255 1 0] 
s 13.000000000 _5_ RTR  --- 0 XFXVanets 48 [0 0 0 0] ------- [5:255 -1:255 1 0] 
s 13.000000000 _6_ RTR  --- 0 XFXVanets 48 [0 0 0 0] ------- [6:255 -1:255 1 0] 
s 14.000000000 _2_ AGT  --- 39 cbr 1000 [0 0 0 0] ------- [2:0 0:0 32 0] [13] 0 0
r 14.000000000 _2_ RTR  --- 39 cbr 1000 [0 0 0 0] ------- [2:0 0:0 32 0] [13] 0 0
s 14.000000000 _3_ AGT  --- 40 cbr 1000 [0 0 0 0] ------- [3:0 1:0 32 0] [13] 0 0
r 14.000000000 _3_ RTR  --- 40 cbr 1000 [0 0 0 0] ------- [3:0 1:0 32 0] [13] 0 0
s 14.000000000 _5_ AGT  --- 41 cbr 1000 [0 0 0 0] ------- [5:0 4:0 32 0] [13] 0 0
r 14.000000000 _5_ RTR  --- 41 cbr 1000 [0 0 0 0] ------- [5:0 4:0 32 0] [13] 0 0
s 14.000000000 _0_ RTR  --- 0 XFXVanets 48 [0 0 0 0] ------- [0:255 -1:255 1 0] 
s 14.000000000 _1_ RTR  --- 0 XFXVanets 48 [0 0 0 0] ------- [1:255 -1:255 1 0] 
s 14.000000000 _2_ RTR  --- 0 XFXVanets 48 [0 0 0 0] ------- [2:255 -1:255 1 0] 
s 14.000000000 _3_ RTR  --- 0 XFXVanets 48 [0 0 0 0] ------- [3:255 -1:255 1 0] 
s 14.000000000 _4_ RTR  --- 0 XFXVanets 48 [0 0 0 0] ------- [4:255 -1:255 1 0] 
s 14.000000000 _5_ RTR  --- 0 XFXVanets 48 [0 0 0 0] ------- [5:255 -1:255 1 0] 
s 14.000000000 _6_ RTR  --- 0 XFXVanets 48 [0 0 0 0] ------- [6:255 -1:255 1 0] 
s 15.000000000 _2_ AGT  --- 42 cbr 1000 [0 0 0 0] ------- [2:0 0:0 32 0] [14] 0 0
r 15.000000000 _2_ RTR  --- 42 cbr 1000 [0 0 0 0] ------- [2:0 0:0 32 0] [14] 0 0
s 15.000000000 _3_ AGT  --- 43 cbr 1000 [0 0 0 0] ------- [3:0 1:0 32 0] [14] 0 0
r 15.000000000 _3_ RTR  --- 43 cbr 1000 [0 0 0 0] ------- [3:0 1:0 32 0] [14] 0 0
s 15.000000000 _5_ AGT  --- 44 cbr 1000 [0 0 0 0] ------- [5:0 4:0 32 0] [14] 0 0
r 15.000000000 _5_ RTR  --- 44 cbr 1000 [0 0 0 0] ------- [5:0 4:0 32 0] [14] 0 0
s 15.000000000 _0_ RTR  --- 0 XFXVanets 48 [0 0 0 0] ------- [0:255 -1:255 1 0] 
s 15.000000000 _1_ RTR  --- 0 XFXVanets 48 [0 0 0 0] ------- [1:255 -1:255 1 0] 
s 15.000000000 _2_ RTR  --- 0 XFXVanets 48 [0 0 0 0] ------- [2:255 -1:255 1 0] 
s 15.000000000 _3_ RTR  --- 0 XFXVanets 48 [0 0 0 0] ------- [3:255 -1:255 1 0] 
s 15.000000000 _4_ RTR  --- 0 XFXVanets 48 [0 0 0 0] ------- [4:255 -1:255 1 0] 
s 15.000000000 _5_ RTR  --- 0 XFXVanets 48 [0 0 0 0] ------- [5:255 -1:255 1 0] 
s 15.000000000 _6_ RTR  --- 0 XFXVanets 48 [0 0 0 0] ------- [6:255 -1:255 1 0] 
r 15.001048024 _3_ RTR  --- 0 XFXVanets 48 [0 ffffffff 5 800] ------- [5:255 -1:255 1 0] 
r 15.002266048 _5_ RTR  --- 0 XFXVanets 48 [0 ffffffff 3 800] ------- [3:255 -1:255 1 0] 
s 16.000000000 _2_ AGT  --- 45 cbr 1000 [0 0 0 0] ------- [2:0 0:0 32 0] [15] 0 0
r 16.000000000 _2_ RTR  --- 45 cbr 1000 [0 0 0 0] ------- [2:0 0:0 32 0] [15] 0 0
s 16.000000000 _3_ AGT  --- 46 cbr 1000 [0 0 0 0] ------- [3:0 1:0 32 0] [15] 0 0
r 16.000000000 _3_ RTR  --- 46 cbr 1000 [0 0 0 0] ------- [3:0 1:0 32 0] [15] 0 0
s 16.000000000 _5_ AGT  --- 47 cbr 1000 [0 0 0 0] ------- [5:0 4:0 32 0] [15] 0 0
r 16.000000000 _5_ RTR  --- 47 cbr 1000 [0 0 0 0] ------- [5:0 4:0 32 0] [15] 0 0
s 16.000000000 _0_ RTR  --- 0 XFXVanets 48 [0 0 0 0] ------- [0:255 -1:255 1 0] 
s 16.000000000 _1_ RTR  --- 0 XFXVanets 48 [0 0 0 0] ------- [1:255 -1:255 1 0] 
s 16.000000000 _2_ RTR  --- 0 XFXVanets 48 [0 0 0 0] ------- [2:255 -1:255 1 0] 
s 16.000000000 _3_ RTR  --- 0 XFXVanets 48 [0 0 0 0] ------- [3:255 -1:255 1 0] 
s 16.000000000 _4_ RTR  --- 0 XFXVanets 48 [0 0 0 0] ------- [4:255 -1:255 1 0] 
s 16.000000000 _5_ RTR  --- 0 XFXVanets 48 [0 0 0 0] ------- [5:255 -1:255 1 0] 
s 16.000000000 _6_ RTR  --- 0 XFXVanets 48 [0 0 0 0] ------- [6:255 -1:255 1 0] 
r 16.001168039 _5_ RTR  --- 0 XFXVanets 48 [0 ffffffff 3 800] ------- [3:255 -1:255 1 0] 
r 16.002426078 _3_ RTR  --- 0 XFXVanets 48 [0 ffffffff 5 800] ------- [5:255 -1:255 1 0] 
s 17.000000000 _2_ AGT  --- 48 cbr 1000 [0 0 0 0] ------- [2:0 0:0 32 0] [16] 0 0
r 17.000000000 _2_ RTR  --- 48 cbr 1000 [0 0 0 0] ------- [2:0 0:0 32 0] [16] 0 0
s 17.000000000 _3_ AGT  --- 49 cbr 1000 [0 0 0 0] ------- [3:0 1:0 32 0] [16] 0 0
r 17.000000000 _3_ RTR  --- 49 cbr 1000 [0 0 0 0] ------- [3:0 1:0 32 0] [16] 0 0
s 17.000000000 _5_ AGT  --- 50 cbr 1000 [0 0 0 0] ------- [5:0 4:0 32 0] [16] 0 0
r 17.000000000 _5_ RTR  --- 50 cbr 1000 [0 0 0 0] ------- [5:0 4:0 32 0] [16] 0 0
s 17.000000000 _0_ RTR  --- 0 XFXVanets 48 [0 0 0 0] ------- [0:255 -1:255 1 0] 
s 17.000000000 _1_ RTR  --- 0 XFXVanets 48 [0 0 0 0] ------- [1:255 -1:255 1 0] 
s 17.000000000 _2_ RTR  --- 0 XFXVanets 48 [0 0 0 0] ------- [2:255 -1:255 1 0] 
s 17.000000000 _3_ RTR  --- 0 XFXVanets 48 [0 0 0 0] ------- [3:255 -1:255 1 0] 
s 17.000000000 _4_ RTR  --- 0 XFXVanets 48 [0 0 0 0] ------- [4:255 -1:255 1 0] 
s 17.000000000 _5_ RTR  --- 0 XFXVanets 48 [0 0 0 0] ------- [5:255 -1:255 1 0] 
s 17.000000000 _6_ RTR  --- 0 XFXVanets 48 [0 0 0 0] ------- [6:255 -1:255 1 0] 
M 18.00000 2 (67.43, 67.43, 10.00), (250.00, 250.00), 10.00
M 18.00000 3 (180.00, 180.00, 10.00), (5.00, 5.00), 10.00
M 18.00000 5 (202.43, 202.43, 10.00), (5.00, 5.00), 10.00
M 18.00000 6 (89.85, 89.85, 10.00), (150.00, 150.00), 10.00
s 18.000000000 _2_ AGT  --- 51 cbr 1000 [0 0 0 0] ------- [2:0 0:0 32 0] [17] 0 0
r 18.000000000 _2_ RTR  --- 51 cbr 1000 [0 0 0 0] ------- [2:0 0:0 32 0] [17] 0 0
s 18.000000000 _3_ AGT  --- 52 cbr 1000 [0 0 0 0] ------- [3:0 1:0 32 0] [17] 0 0
r 18.000000000 _3_ RTR  --- 52 cbr 1000 [0 0 0 0] ------- [3:0 1:0 32 0] [17] 0 0
s 18.000000000 _5_ AGT  --- 53 cbr 1000 [0 0 0 0] ------- [5:0 4:0 32 0] [17] 0 0
r 18.000000000 _5_ RTR  --- 53 cbr 1000 [0 0 0 0] ------- [5:0 4:0 32 0] [17] 0 0
s 18.000000000 _0_ RTR  --- 0 XFXVanets 48 [0 0 0 0] ------- [0:255 -1:255 1 0] 
s 18.000000000 _1_ RTR  --- 0 XFXVanets 48 [0 0 0 0] ------- [1:255 -1:255 1 0] 
s 18.000000000 _2_ RTR  --- 0 XFXVanets 48 [0 0 0 0] ------- [2:255 -1:255 1 0] 
s 18.000000000 _3_ RTR  --- 0 XFXVanets 48 [0 0 0 0] ------- [3:255 -1:255 1 0] 
s 18.000000000 _4_ RTR  --- 0 XFXVanets 48 [0 0 0 0] ------- [4:255 -1:255 1 0] 
s 18.000000000 _5_ RTR  --- 0 XFXVanets 48 [0 0 0 0] ------- [5:255 -1:255 1 0] 
s 18.000000000 _6_ RTR  --- 0 XFXVanets 48 [0 0 0 0] ------- [6:255 -1:255 1 0] 
s 19.000000000 _2_ AGT  --- 54 cbr 1000 [0 0 0 0] ------- [2:0 0:0 32 0] [18] 0 0
r 19.000000000 _2_ RTR  --- 54 cbr 1000 [0 0 0 0] ------- [2:0 0:0 32 0] [18] 0 0
s 19.000000000 _3_ AGT  --- 55 cbr 1000 [0 0 0 0] ------- [3:0 1:0 32 0] [18] 0 0
r 19.000000000 _3_ RTR  --- 55 cbr 1000 [0 0 0 0] ------- [3:0 1:0 32 0] [18] 0 0
s 19.000000000 _5_ AGT  --- 56 cbr 1000 [0 0 0 0] ------- [5:0 4:0 32 0] [18] 0 0
r 19.000000000 _5_ RTR  --- 56 cbr 1000 [0 0 0 0] ------- [5:0 4:0 32 0] [18] 0 0
s 19.000000000 _0_ RTR  --- 0 XFXVanets 48 [0 0 0 0] ------- [0:255 -1:255 1 0] 
s 19.000000000 _1_ RTR  --- 0 XFXVanets 48 [0 0 0 0] ------- [1:255 -1:255 1 0] 
s 19.000000000 _2_ RTR  --- 0 XFXVanets 48 [0 0 0 0] ------- [2:255 -1:255 1 0] 
s 19.000000000 _3_ RTR  --- 0 XFXVanets 48 [0 0 0 0] ------- [3:255 -1:255 1 0] 
s 19.000000000 _4_ RTR  --- 0 XFXVanets 48 [0 0 0 0] ------- [4:255 -1:255 1 0] 
s 19.000000000 _5_ RTR  --- 0 XFXVanets 48 [0 0 0 0] ------- [5:255 -1:255 1 0] 
s 19.000000000 _6_ RTR  --- 0 XFXVanets 48 [0 0 0 0] ------- [6:255 -1:255 1 0] 
s 20.000000000 _2_ AGT  --- 57 cbr 1000 [0 0 0 0] ------- [2:0 0:0 32 0] [19] 0 0
r 20.000000000 _2_ RTR  --- 57 cbr 1000 [0 0 0 0] ------- [2:0 0:0 32 0] [19] 0 0
s 20.000000000 _3_ AGT  --- 58 cbr 1000 [0 0 0 0] ------- [3:0 1:0 32 0] [19] 0 0
r 20.000000000 _3_ RTR  --- 58 cbr 1000 [0 0 0 0] ------- [3:0 1:0 32 0] [19] 0 0
s 20.000000000 _5_ AGT  --- 59 cbr 1000 [0 0 0 0] ------- [5:0 4:0 32 0] [19] 0 0
r 20.000000000 _5_ RTR  --- 59 cbr 1000 [0 0 0 0] ------- [5:0 4:0 32 0] [19] 0 0
s 20.000000000 _0_ RTR  --- 0 XFXVanets 48 [0 0 0 0] ------- [0:255 -1:255 1 0] 
s 20.000000000 _1_ RTR  --- 0 XFXVanets 48 [0 0 0 0] ------- [1:255 -1:255 1 0] 
s 20.000000000 _2_ RTR  --- 0 XFXVanets 48 [0 0 0 0] ------- [2:255 -1:255 1 0] 
s 20.000000000 _3_ RTR  --- 0 XFXVanets 48 [0 0 0 0] ------- [3:255 -1:255 1 0] 
s 20.000000000 _4_ RTR  --- 0 XFXVanets 48 [0 0 0 0] ------- [4:255 -1:255 1 0] 
s 20.000000000 _5_ RTR  --- 0 XFXVanets 48 [0 0 0 0] ------- [5:255 -1:255 1 0] 
s 20.000000000 _6_ RTR  --- 0 XFXVanets 48 [0 0 0 0] ------- [6:255 -1:255 1 0] 
s 21.000000000 _2_ AGT  --- 60 cbr 1000 [0 0 0 0] ------- [2:0 0:0 32 0] [20] 0 0
r 21.000000000 _2_ RTR  --- 60 cbr 1000 [0 0 0 0] ------- [2:0 0:0 32 0] [20] 0 0
s 21.000000000 _3_ AGT  --- 61 cbr 1000 [0 0 0 0] ------- [3:0 1:0 32 0] [20] 0 0
r 21.000000000 _3_ RTR  --- 61 cbr 1000 [0 0 0 0] ------- [3:0 1:0 32 0] [20] 0 0
s 21.000000000 _5_ AGT  --- 62 cbr 1000 [0 0 0 0] ------- [5:0 4:0 32 0] [20] 0 0
r 21.000000000 _5_ RTR  --- 62 cbr 1000 [0 0 0 0] ------- [5:0 4:0 32 0] [20] 0 0
s 21.000000000 _0_ RTR  --- 0 XFXVanets 48 [0 0 0 0] ------- [0:255 -1:255 1 0] 
s 21.000000000 _1_ RTR  --- 0 XFXVanets 48 [0 0 0 0] ------- [1:255 -1:255 1 0] 
s 21.000000000 _2_ RTR  --- 0 XFXVanets 48 [0 0 0 0] ------- [2:255 -1:255 1 0] 
s 21.000000000 _3_ RTR  --- 0 XFXVanets 48 [0 0 0 0] ------- [3:255 -1:255 1 0] 
s 21.000000000 _4_ RTR  --- 0 XFXVanets 48 [0 0 0 0] ------- [4:255 -1:255 1 0] 
s 21.000000000 _5_ RTR  --- 0 XFXVanets 48 [0 0 0 0] ------- [5:255 -1:255 1 0] 
s 21.000000000 _6_ RTR  --- 0 XFXVanets 48 [0 0 0 0] ------- [6:255 -1:255 1 0] 
r 21.001188041 _3_ RTR  --- 0 XFXVanets 48 [0 ffffffff 4 800] ------- [4:255 -1:255 1 0] 
r 21.002446083 _4_ RTR  --- 0 XFXVanets 48 [0 ffffffff 3 800] ------- [3:255 -1:255 1 0] 