s 0.000000000 _0_ AGT  --- 0 cbr 1000 [0 0 0 0] ------- [0:0 1:0 32 0] [0] 0 0
r 0.000000000 _0_ RTR  --- 0 cbr 1000 [0 0 0 0] ------- [0:0 1:0 32 0] [0] 0 0
s 0.000000000 _0_ RTR  --- 0 XFXVanets 48 [0 0 0 0] ------- [0:255 -1:255 1 0] 
s 0.000000000 _1_ RTR  --- 0 XFXVanets 48 [0 0 0 0] ------- [1:255 -1:255 1 0] 
r 0.000988000 _0_ RTR  --- 0 XFXVanets 48 [0 ffffffff 1 800] ------- [1:255 -1:255 1 0] 
s 0.000988000 _0_ RTR  --- 0 XFXVanets 48 [0 0 0 0] ------- [0:255 1:255 30 0] 
r 0.002306000 _1_ RTR  --- 0 XFXVanets 48 [0 ffffffff 0 800] ------- [0:255 -1:255 1 0] 
r 0.006971000 _1_ RTR  --- 0 XFXVanets 48 [13a 1 0 800] ------- [0:255 1:255 30 0] 
M 1.00000 1 (5.00, 5.00, 0.00), (5.00, 5.00), 0.00
s 1.000000000 _0_ AGT  --- 1 cbr 1000 [0 0 0 0] ------- [0:0 1:0 32 0] [1] 0 0
r 1.000000000 _0_ RTR  --- 1 cbr 1000 [0 0 0 0] ------- [0:0 1:0 32 0] [1] 0 0
s 1.000000000 _0_ RTR  --- 0 XFXVanets 48 [0 0 0 0] ------- [0:255 -1:255 1 0] 
s 1.000000000 _1_ RTR  --- 0 XFXVanets 48 [0 0 0 0] ------- [1:255 -1:255 1 0] 
r 1.001188000 _1_ RTR  --- 0 XFXVanets 48 [0 ffffffff 0 800] ------- [0:255 -1:255 1 0] 
r 1.002206000 _0_ RTR  --- 0 XFXVanets 48 [0 ffffffff 1 800] ------- [1:255 -1:255 1 0] 
s 1.002206000 _0_ RTR  --- 1 XFXVanets 48 [0 0 0 0] ------- [0:255 1:255 30 0] 
r 1.003920000 _1_ RTR  --- 1 XFXVanets 48 [13a 1 0 800] ------- [0:255 1:255 30 0] 
s 2.000000000 _0_ AGT  --- 2 cbr 1000 [0 0 0 0] ------- [0:0 1:0 32 0] [2] 0 0
r 2.000000000 _0_ RTR  --- 2 cbr 1000 [0 0 0 0] ------- [0:0 1:0 32 0] [2] 0 0
s 2.000000000 _0_ RTR  --- 0 XFXVanets 48 [0 0 0 0] ------- [0:255 -1:255 1 0] 
s 2.000000000 _1_ RTR  --- 0 XFXVanets 48 [0 0 0 0] ------- [1:255 -1:255 1 0] 
r 2.001108000 _0_ RTR  --- 0 XFXVanets 48 [0 ffffffff 1 800] ------- [1:255 -1:255 1 0] 
s 2.001108000 _0_ RTR  --- 2 XFXVanets 48 [0 0 0 0] ------- [0:255 1:255 30 0] 
r 2.002386000 _1_ RTR  --- 0 XFXVanets 48 [0 ffffffff 0 800] ------- [0:255 -1:255 1 0] 
r 2.004200000 _1_ RTR  --- 2 XFXVanets 48 [13a 1 0 800] ------- [0:255 1:255 30 0] 
M 3.00000 0 (5.00, 5.00, 0.00), (25.00, 25.00), 10.00
s 3.000000000 _0_ AGT  --- 3 cbr 1000 [0 0 0 0] ------- [0:0 1:0 32 0] [3] 0 0
r 3.000000000 _0_ RTR  --- 3 cbr 1000 [0 0 0 0] ------- [0:0 1:0 32 0] [3] 0 0
s 3.000000000 _0_ RTR  --- 0 XFXVanets 48 [0 0 0 0] ------- [0:255 -1:255 1 0] 
s 3.000000000 _1_ RTR  --- 0 XFXVanets 48 [0 0 0 0] ------- [1:255 -1:255 1 0] 
r 3.001288000 _0_ RTR  --- 0 XFXVanets 48 [0 ffffffff 1 800] ------- [1:255 -1:255 1 0] 
s 3.001288000 _0_ RTR  --- 3 XFXVanets 48 [0 0 0 0] ------- [0:255 1:255 30 0] 
r 3.002326000 _1_ RTR  --- 0 XFXVanets 48 [0 ffffffff 0 800] ------- [0:255 -1:255 1 0] 
r 3.004100000 _1_ RTR  --- 3 XFXVanets 48 [13a 1 0 800] ------- [0:255 1:255 30 0] 
s 4.000000000 _0_ AGT  --- 4 cbr 1000 [0 0 0 0] ------- [0:0 1:0 32 0] [4] 0 0
r 4.000000000 _0_ RTR  --- 4 cbr 1000 [0 0 0 0] ------- [0:0 1:0 32 0] [4] 0 0
s 4.000000000 _0_ RTR  --- 0 XFXVanets 48 [0 0 0 0] ------- [0:255 -1:255 1 0] 
s 4.000000000 _1_ RTR  --- 0 XFXVanets 48 [0 0 0 0] ------- [1:255 -1:255 1 0] 
r 4.000968033 _1_ RTR  --- 0 XFXVanets 48 [0 ffffffff 0 800] ------- [0:255 -1:255 1 0] 
r 4.002086067 _0_ RTR  --- 0 XFXVanets 48 [0 ffffffff 1 800] ------- [1:255 -1:255 1 0] 
s 4.002086067 _0_ RTR  --- 4 XFXVanets 48 [0 0 0 0] ------- [0:255 1:255 30 0] 
r 4.003880167 _1_ RTR  --- 4 XFXVanets 48 [13a 1 0 800] ------- [0:255 1:255 30 0] 
s 5.000000000 _0_ AGT  --- 5 cbr 1000 [0 0 0 0] ------- [0:0 1:0 32 0] [5] 0 0
r 5.000000000 _0_ RTR  --- 5 cbr 1000 [0 0 0 0] ------- [0:0 1:0 32 0] [5] 0 0
s 5.000000000 _0_ RTR  --- 0 XFXVanets 48 [0 0 0 0] ------- [0:255 -1:255 1 0] 
s 5.000000000 _1_ RTR  --- 0 XFXVanets 48 [0 0 0 0] ------- [1:255 -1:255 1 0] 
r 5.001348067 _1_ RTR  --- 0 XFXVanets 48 [0 ffffffff 0 800] ------- [0:255 -1:255 1 0] 
r 5.002386133 _0_ RTR  --- 0 XFXVanets 48 [0 ffffffff 1 800] ------- [1:255 -1:255 1 0] 
s 5.002386133 _0_ RTR  --- 5 XFXVanets 48 [0 0 0 0] ------- [0:255 1:255 30 0] 
r 5.004180334 _1_ RTR  --- 5 XFXVanets 48 [13a 1 0 800] ------- [0:255 1:255 30 0] 
s 6.000000000 _0_ AGT  --- 6 cbr 1000 [0 0 0 0] ------- [0:0 1:0 32 0] [6] 0 0
r 6.000000000 _0_ RTR  --- 6 cbr 1000 [0 0 0 0] ------- [0:0 1:0 32 0] [6] 0 0
s 6.000000000 _0_ RTR  --- 0 XFXVanets 48 [0 0 0 0] ------- [0:255 -1:255 1 0] 
s 6.000000000 _1_ RTR  --- 0 XFXVanets 48 [0 0 0 0] ------- [1:255 -1:255 1 0] 
r 6.001088094 _0_ RTR  --- 0 XFXVanets 48 [0 ffffffff 1 800] ------- [1:255 -1:255 1 0] 
s 6.001088094 _0_ RTR  --- 6 XFXVanets 48 [0 0 0 0] ------- [0:255 1:255 30 0] 
r 6.002206189 _1_ RTR  --- 0 XFXVanets 48 [0 ffffffff 0 800] ------- [0:255 -1:255 1 0] 
r 6.004060377 _1_ RTR  --- 6 XFXVanets 48 [13a 1 0 800] ------- [0:255 1:255 30 0] 
s 7.000000000 _0_ AGT  --- 7 cbr 1000 [0 0 0 0] ------- [0:0 1:0 32 0] [7] 0 0
r 7.000000000 _0_ RTR  --- 7 cbr 1000 [0 0 0 0] ------- [0:0 1:0 32 0] [7] 0 0
s 7.000000000 _0_ RTR  --- 0 XFXVanets 48 [0 0 0 0] ------- [0:255 -1:255 1 0] 
s 7.000000000 _1_ RTR  --- 0 XFXVanets 48 [0 0 0 0] ------- [1:255 -1:255 1 0] 
r 7.001048094 _1_ RTR  --- 0 XFXVanets 48 [0 ffffffff 0 800] ------- [0:255 -1:255 1 0] 
r 7.002366189 _0_ RTR  --- 0 XFXVanets 48 [0 ffffffff 1 800] ------- [1:255 -1:255 1 0] 
s 7.002366189 _0_ RTR  --- 7 XFXVanets 48 [0 0 0 0] ------- [0:255 1:255 30 0] 
r 7.004570471 _1_ RTR  --- 7 XFXVanets 48 [13a 1 0 800] ------- [0:255 1:255 30 0] 
s 8.000000000 _0_ AGT  --- 8 cbr 1000 [0 0 0 0] ------- [0:0 1:0 32 0] [8] 0 0
r 8.000000000 _0_ RTR  --- 8 cbr 1000 [0 0 0 0] ------- [0:0 1:0 32 0] [8] 0 0
s 8.000000000 _0_ RTR  --- 0 XFXVanets 48 [0 0 0 0] ------- [0:255 -1:255 1 0] 
s 8.000000000 _1_ RTR  --- 0 XFXVanets 48 [0 0 0 0] ------- [1:255 -1:255 1 0] 
r 8.001068094 _1_ RTR  --- 0 XFXVanets 48 [0 ffffffff 0 800] ------- [0:255 -1:255 1 0] 
r 8.002186189 _0_ RTR  --- 0 XFXVanets 48 [0 ffffffff 1 800] ------- [1:255 -1:255 1 0] 
s 8.002186189 _0_ RTR  --- 8 XFXVanets 48 [0 0 0 0] ------- [0:255 1:255 30 0] 
r 8.004040471 _1_ RTR  --- 8 XFXVanets 48 [13a 1 0 800] ------- [0:255 1:255 30 0] 
s 9.000000000 _0_ AGT  --- 9 cbr 1000 [0 0 0 0] ------- [0:0 1:0 32 0] [9] 0 0
r 9.000000000 _0_ RTR  --- 9 cbr 1000 [0 0 0 0] ------- [0:0 1:0 32 0] [9] 0 0
s 9.000000000 _0_ RTR  --- 0 XFXVanets 48 [0 0 0 0] ------- [0:255 -1:255 1 0] 
s 9.000000000 _1_ RTR  --- 0 XFXVanets 48 [0 0 0 0] ------- [1:255 -1:255 1 0] 
r 9.001228094 _1_ RTR  --- 0 XFXVanets 48 [0 ffffffff 0 800] ------- [0:255 -1:255 1 0] 
r 9.002326189 _0_ RTR  --- 0 XFXVanets 48 [0 ffffffff 1 800] ------- [1:255 -1:255 1 0] 
s 9.002326189 _0_ RTR  --- 9 XFXVanets 48 [0 0 0 0] ------- [0:255 1:255 30 0] 
r 9.004270471 _1_ RTR  --- 9 XFXVanets 48 [13a 1 0 800] ------- [0:255 1:255 30 0] 
s 10.000000000 _0_ AGT  --- 10 cbr 1000 [0 0 0 0] ------- [0:0 1:0 32 0] [10] 0 0
r 10.000000000 _0_ RTR  --- 10 cbr 1000 [0 0 0 0] ------- [0:0 1:0 32 0] [10] 0 0
s 10.000000000 _0_ RTR  --- 0 XFXVanets 48 [0 0 0 0] ------- [0:255 -1:255 1 0] 
s 10.000000000 _1_ RTR  --- 0 XFXVanets 48 [0 0 0 0] ------- [1:255 -1:255 1 0] 
r 10.001028094 _0_ RTR  --- 0 XFXVanets 48 [0 ffffffff 1 800] ------- [1:255 -1:255 1 0] 
s 10.001028094 _0_ RTR  --- 10 XFXVanets 48 [0 0 0 0] ------- [0:255 1:255 30 0] 
r 10.002066189 _1_ RTR  --- 0 XFXVanets 48 [0 ffffffff 0 800] ------- [0:255 -1:255 1 0] 
r 10.003640377 _1_ RTR  --- 10 XFXVanets 48 [13a 1 0 800] ------- [0:255 1:255 30 0] 
s 11.000000000 _0_ AGT  --- 11 cbr 1000 [0 0 0 0] ------- [0:0 1:0 32 0] [11] 0 0
r 11.000000000 _0_ RTR  --- 11 cbr 1000 [0 0 0 0] ------- [0:0 1:0 32 0] [11] 0 0
s 11.000000000 _0_ RTR  --- 0 XFXVanets 48 [0 0 0 0] ------- [0:255 -1:255 1 0] 
s 11.000000000 _1_ RTR  --- 0 XFXVanets 48 [0 0 0 0] ------- [1:255 -1:255 1 0] 
r 11.001228094 _0_ RTR  --- 0 XFXVanets 48 [0 ffffffff 1 800] ------- [1:255 -1:255 1 0] 
s 11.001228094 _0_ RTR  --- 11 XFXVanets 48 [0 0 0 0] ------- [0:255 1:255 30 0] 
r 11.002146189 _1_ RTR  --- 0 XFXVanets 48 [0 ffffffff 0 800] ------- [0:255 -1:255 1 0] 
r 11.004200377 _1_ RTR  --- 11 XFXVanets 48 [13a 1 0 800] ------- [0:255 1:255 30 0] 
s 12.000000000 _0_ AGT  --- 12 cbr 1000 [0 0 0 0] ------- [0:0 1:0 32 0] [12] 0 0
r 12.000000000 _0_ RTR  --- 12 cbr 1000 [0 0 0 0] ------- [0:0 1:0 32 0] [12] 0 0
s 12.000000000 _0_ RTR  --- 0 XFXVanets 48 [0 0 0 0] ------- [0:255 -1:255 1 0] 
s 12.000000000 _1_ RTR  --- 0 XFXVanets 48 [0 0 0 0] ------- [1:255 -1:255 1 0] 
r 12.001068094 _1_ RTR  --- 0 XFXVanets 48 [0 ffffffff 0 800] ------- [0:255 -1:255 1 0] 
r 12.002146189 _0_ RTR  --- 0 XFXVanets 48 [0 ffffffff 1 800] ------- [1:255 -1:255 1 0] 
s 12.002146189 _0_ RTR  --- 12 XFXVanets 48 [0 0 0 0] ------- [0:255 1:255 30 0] 
r 12.003890471 _1_ RTR  --- 12 XFXVanets 48 [13a 1 0 800] ------- [0:255 1:255 30 0] 
s 13.000000000 _0_ AGT  --- 13 cbr 1000 [0 0 0 0] ------- [0:0 1:0 32 0] [13] 0 0
r 13.000000000 _0_ RTR  --- 13 cbr 1000 [0 0 0 0] ------- [0:0 1:0 32 0] [13] 0 0
s 13.000000000 _0_ RTR  --- 0 XFXVanets 48 [0 0 0 0] ------- [0:255 -1:255 1 0] 
s 13.000000000 _1_ RTR  --- 0 XFXVanets 48 [0 0 0 0] ------- [1:255 -1:255 1 0] 
r 13.001028094 _0_ RTR  --- 0 XFXVanets 48 [0 ffffffff 1 800] ------- [1:255 -1:255 1 0] 
s 13.001028094 _0_ RTR  --- 13 XFXVanets 48 [0 0 0 0] ------- [0:255 1:255 30 0] 
r 13.001946189 _1_ RTR  --- 0 XFXVanets 48 [0 ffffffff 0 800] ------- [0:255 -1:255 1 0] 
r 13.003720377 _1_ RTR  --- 13 XFXVanets 48 [13a 1 0 800] ------- [0:255 1:255 30 0] 
s 14.000000000 _0_ AGT  --- 14 cbr 1000 [0 0 0 0] ------- [0:0 1:0 32 0] [14] 0 0
r 14.000000000 _0_ RTR  --- 14 cbr 1000 [0 0 0 0] ------- [0:0 1:0 32 0] [14] 0 0
s 14.000000000 _0_ RTR  --- 0 XFXVanets 48 [0 0 0 0] ------- [0:255 -1:255 1 0] 
s 14.000000000 _1_ RTR  --- 0 XFXVanets 48 [0 0 0 0] ------- [1:255 -1:255 1 0] 
r 14.001288094 _1_ RTR  --- 0 XFXVanets 48 [0 ffffffff 0 800] ------- [0:255 -1:255 1 0] 
r 14.002446189 _0_ RTR  --- 0 XFXVanets 48 [0 ffffffff 1 800] ------- [1:255 -1:255 1 0] 
s 14.002446189 _0_ RTR  --- 14 XFXVanets 48 [0 0 0 0] ------- [0:255 1:255 30 0] 
r 14.004650471 _1_ RTR  --- 14 XFXVanets 48 [13a 1 0 800] ------- [0:255 1:255 30 0] 
s 15.000000000 _0_ AGT  --- 15 cbr 1000 [0 0 0 0] ------- [0:0 1:0 32 0] [15] 0 0
r 15.000000000 _0_ RTR  --- 15 cbr 1000 [0 0 0 0] ------- [0:0 1:0 32 0] [15] 0 0
s 15.000000000 _0_ RTR  --- 0 XFXVanets 48 [0 0 0 0] ------- [0:255 -1:255 1 0] 
s 15.000000000 _1_ RTR  --- 0 XFXVanets 48 [0 0 0 0] ------- [1:255 -1:255 1 0] 
r 15.001388094 _0_ RTR  --- 0 XFXVanets 48 [0 ffffffff 1 800] ------- [1:255 -1:255 1 0] 
s 15.001388094 _0_ RTR  --- 15 XFXVanets 48 [0 0 0 0] ------- [0:255 1:255 30 0] 
r 15.002446189 _1_ RTR  --- 0 XFXVanets 48 [0 ffffffff 0 800] ------- [0:255 -1:255 1 0] 
r 15.004320377 _1_ RTR  --- 15 XFXVanets 48 [13a 1 0 800] ------- [0:255 1:255 30 0] 
s 16.000000000 _0_ AGT  --- 16 cbr 1000 [0 0 0 0] ------- [0:0 1:0 32 0] [16] 0 0
r 16.000000000 _0_ RTR  --- 16 cbr 1000 [0 0 0 0] ------- [0:0 1:0 32 0] [16] 0 0
s 16.000000000 _0_ RTR  --- 0 XFXVanets 48 [0 0 0 0] ------- [0:255 -1:255 1 0] 
s 16.000000000 _1_ RTR  --- 0 XFXVanets 48 [0 0 0 0] ------- [1:255 -1:255 1 0] 
r 16.001248094 _1_ RTR  --- 0 XFXVanets 48 [0 ffffffff 0 800] ------- [0:255 -1:255 1 0] 
r 16.002186189 _0_ RTR  --- 0 XFXVanets 48 [0 ffffffff 1 800] ------- [1:255 -1:255 1 0] 
s 16.002186189 _0_ RTR  --- 16 XFXVanets 48 [0 0 0 0] ------- [0:255 1:255 30 0] 
r 16.004030471 _1_ RTR  --- 16 XFXVanets 48 [13a 1 0 800] ------- [0:255 1:255 30 0] 
s 17.000000000 _0_ AGT  --- 17 cbr 1000 [0 0 0 0] ------- [0:0 1:0 32 0] [17] 0 0
r 17.000000000 _0_ RTR  --- 17 cbr 1000 [0 0 0 0] ------- [0:0 1:0 32 0] [17] 0 0
s 17.000000000 _0_ RTR  --- 0 XFXVanets 48 [0 0 0 0] ------- [0:255 -1:255 1 0] 
s 17.000000000 _1_ RTR  --- 0 XFXVanets 48 [0 0 0 0] ------- [1:255 -1:255 1 0] 
r 17.001108094 _1_ RTR  --- 0 XFXVanets 48 [0 ffffffff 0 800] ------- [0:255 -1:255 1 0] 
r 17.002286189 _0_ RTR  --- 0 XFXVanets 48 [0 ffffffff 1 800] ------- [1:255 -1:255 1 0] 
s 17.002286189 _0_ RTR  --- 17 XFXVanets 48 [0 0 0 0] ------- [0:255 1:255 30 0] 
r 17.003980471 _1_ RTR  --- 17 XFXVanets 48 [13a 1 0 800] ------- [0:255 1:255 30 0] 
s 18.000000000 _0_ AGT  --- 18 cbr 1000 [0 0 0 0] ------- [0:0 1:0 32 0] [18] 0 0
r 18.000000000 _0_ RTR  --- 18 cbr 1000 [0 0 0 0] ------- [0:0 1:0 32 0] [18] 0 0
s 18.000000000 _0_ RTR  --- 0 XFXVanets 48 [0 0 0 0] ------- [0:255 -1:255 1 0] 
s 18.000000000 _1_ RTR  --- 0 XFXVanets 48 [0 0 0 0] ------- [1:255 -1:255 1 0] 
r 18.000948094 _0_ RTR  --- 0 XFXVanets 48 [0 ffffffff 1 800] ------- [1:255 -1:255 1 0] 
s 18.000948094 _0_ RTR  --- 18 XFXVanets 48 [0 0 0 0] ------- [0:255 1:255 30 0] 
r 18.002066189 _1_ RTR  --- 0 XFXVanets 48 [0 ffffffff 0 800] ------- [0:255 -1:255 1 0] 
r 18.004000377 _1_ RTR  --- 18 XFXVanets 48 [13a 1 0 800] ------- [0:255 1:255 30 0] 
s 19.000000000 _0_ AGT  --- 19 cbr 1000 [0 0 0 0] ------- [0:0 1:0 32 0] [19] 0 0
r 19.000000000 _0_ RTR  --- 19 cbr 1000 [0 0 0 0] ------- [0:0 1:0 32 0] [19] 0 0
s 19.000000000 _0_ RTR  --- 0 XFXVanets 48 [0 0 0 0] ------- [0:255 -1:255 1 0] 
s 19.000000000 _1_ RTR  --- 0 XFXVanets 48 [0 0 0 0] ------- [1:255 -1:255 1 0] 
r 19.001368094 _1_ RTR  --- 0 XFXVanets 48 [0 ffffffff 0 800] ------- [0:255 -1:255 1 0] 
r 19.002346189 _0_ RTR  --- 0 XFXVanets 48 [0 ffffffff 1 800] ------- [1:255 -1:255 1 0] 
s 19.002346189 _0_ RTR  --- 19 XFXVanets 48 [0 0 0 0] ------- [0:255 1:255 30 0] 
r 19.004160471 _1_ RTR  --- 19 XFXVanets 48 [13a 1 0 800] ------- [0:255 1:255 30 0] 
s 20.000000000 _0_ AGT  --- 20 cbr 1000 [0 0 0 0] ------- [0:0 1:0 32 0] [20] 0 0
r 20.000000000 _0_ RTR  --- 20 cbr 1000 [0 0 0 0] ------- [0:0 1:0 32 0] [20] 0 0
s 20.000000000 _0_ RTR  --- 0 XFXVanets 48 [0 0 0 0] ------- [0:255 -1:255 1 0] 
s 20.000000000 _1_ RTR  --- 0 XFXVanets 48 [0 0 0 0] ------- [1:255 -1:255 1 0] 
r 20.001048094 _0_ RTR  --- 0 XFXVanets 48 [0 ffffffff 1 800] ------- [1:255 -1:255 1 0] 
s 20.001048094 _0_ RTR  --- 20 XFXVanets 48 [0 0 0 0] ------- [0:255 1:255 30 0] 
r 20.002106189 _1_ RTR  --- 0 XFXVanets 48 [0 ffffffff 0 800] ------- [0:255 -1:255 1 0] 
r 20.003740377 _1_ RTR  --- 20 XFXVanets 48 [13a 1 0 800] ------- [0:255 1:255 30 0] 
s 21.000000000 _0_ AGT  --- 21 cbr 1000 [0 0 0 0] ------- [0:0 1:0 32 0] [21] 0 0
r 21.000000000 _0_ RTR  --- 21 cbr 1000 [0 0 0 0] ------- [0:0 1:0 32 0] [21] 0 0
s 21.000000000 _0_ RTR  --- 0 XFXVanets 48 [0 0 0 0] ------- [0:255 -1:255 1 0] 
s 21.000000000 _1_ RTR  --- 0 XFXVanets 48 [0 0 0 0] ------- [1:255 -1:255 1 0] 
r 21.001368094 _0_ RTR  --- 0 XFXVanets 48 [0 ffffffff 1 800] ------- [1:255 -1:255 1 0] 
s 21.001368094 _0_ RTR  --- 21 XFXVanets 48 [0 0 0 0] ------- [0:255 1:255 30 0] 
r 21.002446189 _1_ RTR  --- 0 XFXVanets 48 [0 ffffffff 0 800] ------- [0:255 -1:255 1 0] 
r 21.004040377 _1_ RTR  --- 21 XFXVanets 48 [13a 1 0 800] ------- [0:255 1:255 30 0] 
s 22.000000000 _0_ AGT  --- 22 cbr 1000 [0 0 0 0] ------- [0:0 1:0 32 0] [22] 0 0
r 22.000000000 _0_ RTR  --- 22 cbr 1000 [0 0 0 0] ------- [0:0 1:0 32 0] [22] 0 0
s 22.000000000 _0_ RTR  --- 0 XFXVanets 48 [0 0 0 0] ------- [0:255 -1:255 1 0] 
s 22.000000000 _1_ RTR  --- 0 XFXVanets 48 [0 0 0 0] ------- [1:255 -1:255 1 0] 
r 22.000968094 _0_ RTR  --- 0 XFXVanets 48 [0 ffffffff 1 800] ------- [1:255 -1:255 1 0] 
s 22.000968094 _0_ RTR  --- 22 XFXVanets 48 [0 0 0 0] ------- [0:255 1:255 30 0] 
r 22.002106189 _1_ RTR  --- 0 XFXVanets 48 [0 ffffffff 0 800] ------- [0:255 -1:255 1 0] 
r 22.004060377 _1_ RTR  --- 22 XFXVanets 48 [13a 1 0 800] ------- [0:255 1:255 30 0] 
s 23.000000000 _0_ AGT  --- 23 cbr 1000 [0 0 0 0] ------- [0:0 1:0 32 0] [23] 0 0
r 23.000000000 _0_ RTR  --- 23 cbr 1000 [0 0 0 0] ------- [0:0 1:0 32 0] [23] 0 0
s 23.000000000 _0_ RTR  --- 0 XFXVanets 48 [0 0 0 0] ------- [0:255 -1:255 1 0] 
s 23.000000000 _1_ RTR  --- 0 XFXVanets 48 [0 0 0 0] ------- [1:255 -1:255 1 0] 
r 23.001328094 _1_ RTR  --- 0 XFXVanets 48 [0 ffffffff 0 800] ------- [0:255 -1:255 1 0] 
r 23.002326189 _0_ RTR  --- 0 XFXVanets 48 [0 ffffffff 1 800] ------- [1:255 -1:255 1 0] 
s 23.002326189 _0_ RTR  --- 23 XFXVanets 48 [0 0 0 0] ------- [0:255 1:255 30 0] 
r 23.004120471 _1_ RTR  --- 23 XFXVanets 48 [13a 1 0 800] ------- [0:255 1:255 30 0] 
s 24.000000000 _0_ AGT  --- 24 cbr 1000 [0 0 0 0] ------- [0:0 1:0 32 0] [24] 0 0
r 24.000000000 _0_ RTR  --- 24 cbr 1000 [0 0 0 0] ------- [0:0 1:0 32 0] [24] 0 0
s 24.000000000 _0_ RTR  --- 0 XFXVanets 48 [0 0 0 0] ------- [0:255 -1:255 1 0] 
s 24.000000000 _1_ RTR  --- 0 XFXVanets 48 [0 0 0 0] ------- [1:255 -1:255 1 0] 
r 24.001088094 _0_ RTR  --- 0 XFXVanets 48 [0 ffffffff 1 800] ------- [1:255 -1:255 1 0] 
s 24.001088094 _0_ RTR  --- 24 XFXVanets 48 [0 0 0 0] ------- [0:255 1:255 30 0] 
r 24.002026189 _1_ RTR  --- 0 XFXVanets 48 [0 ffffffff 0 800] ------- [0:255 -1:255 1 0] 
r 24.003600377 _1_ RTR  --- 24 XFXVanets 48 [13a 1 0 800] ------- [0:255 1:255 30 0] 
s 25.000000000 _0_ AGT  --- 25 cbr 1000 [0 0 0 0] ------- [0:0 1:0 32 0] [25] 0 0
r 25.000000000 _0_ RTR  --- 25 cbr 1000 [0 0 0 0] ------- [0:0 1:0 32 0] [25] 0 0
s 25.000000000 _0_ RTR  --- 0 XFXVanets 48 [0 0 0 0] ------- [0:255 -1:255 1 0] 
s 25.000000000 _1_ RTR  --- 0 XFXVanets 48 [0 0 0 0] ------- [1:255 -1:255 1 0] 
r 25.000948094 _1_ RTR  --- 0 XFXVanets 48 [0 ffffffff 0 800] ------- [0:255 -1:255 1 0] 
r 25.002386189 _0_ RTR  --- 0 XFXVanets 48 [0 ffffffff 1 800] ------- [1:255 -1:255 1 0] 
s 25.002386189 _0_ RTR  --- 25 XFXVanets 48 [0 0 0 0] ------- [0:255 1:255 30 0] 
r 25.003980471 _1_ RTR  --- 25 XFXVanets 48 [13a 1 0 800] ------- [0:255 1:255 30 0] 
s 26.000000000 _0_ AGT  --- 26 cbr 1000 [0 0 0 0] ------- [0:0 1:0 32 0] [26] 0 0
r 26.000000000 _0_ RTR  --- 26 cbr 1000 [0 0 0 0] ------- [0:0 1:0 32 0] [26] 0 0
s 26.000000000 _0_ RTR  --- 0 XFXVanets 48 [0 0 0 0] ------- [0:255 -1:255 1 0] 
s 26.000000000 _1_ RTR  --- 0 XFXVanets 48 [0 0 0 0] ------- [1:255 -1:255 1 0] 
r 26.001168094 _1_ RTR  --- 0 XFXVanets 48 [0 ffffffff 0 800] ------- [0:255 -1:255 1 0] 
r 26.002366189 _0_ RTR  --- 0 XFXVanets 48 [0 ffffffff 1 800] ------- [1:255 -1:255 1 0] 
s 26.002366189 _0_ RTR  --- 26 XFXVanets 48 [0 0 0 0] ------- [0:255 1:255 30 0] 
r 26.004510471 _1_ RTR  --- 26 XFXVanets 48 [13a 1 0 800] ------- [0:255 1:255 30 0] 
s 27.000000000 _0_ AGT  --- 27 cbr 1000 [0 0 0 0] ------- [0:0 1:0 32 0] [27] 0 0
r 27.000000000 _0_ RTR  --- 27 cbr 1000 [0 0 0 0] ------- [0:0 1:0 32 0] [27] 0 0
s 27.000000000 _0_ RTR  --- 0 XFXVanets 48 [0 0 0 0] ------- [0:255 -1:255 1 0] 
s 27.000000000 _1_ RTR  --- 0 XFXVanets 48 [0 0 0 0] ------- [1:255 -1:255 1 0] 
r 27.000948094 _0_ RTR  --- 0 XFXVanets 48 [0 ffffffff 1 800] ------- [1:255 -1:255 1 0] 
s 27.000948094 _0_ RTR  --- 27 XFXVanets 48 [0 0 0 0] ------- [0:255 1:255 30 0] 
r 27.002026189 _1_ RTR  --- 0 XFXVanets 48 [0 ffffffff 0 800] ------- [0:255 -1:255 1 0] 
r 27.004100377 _1_ RTR  --- 27 XFXVanets 48 [13a 1 0 800] ------- [0:255 1:255 30 0] 
s 28.000000000 _0_ AGT  --- 28 cbr 1000 [0 0 0 0] ------- [0:0 1:0 32 0] [28] 0 0
r 28.000000000 _0_ RTR  --- 28 cbr 1000 [0 0 0 0] ------- [0:0 1:0 32 0] [28] 0 0
s 28.000000000 _0_ RTR  --- 0 XFXVanets 48 [0 0 0 0] ------- [0:255 -1:255 1 0] 
s 28.000000000 _1_ RTR  --- 0 XFXVanets 48 [0 0 0 0] ------- [1:255 -1:255 1 0] 
r 28.000948094 _1_ RTR  --- 0 XFXVanets 48 [0 ffffffff 0 800] ------- [0:255 -1:255 1 0] 
r 28.001966189 _0_ RTR  --- 0 XFXVanets 48 [0 ffffffff 1 800] ------- [1:255 -1:255 1 0] 
s 28.001966189 _0_ RTR  --- 28 XFXVanets 48 [0 0 0 0] ------- [0:255 1:255 30 0] 
r 28.003780471 _1_ RTR  --- 28 XFXVanets 48 [13a 1 0 800] ------- [0:255 1:255 30 0] 
s 29.000000000 _0_ AGT  --- 29 cbr 1000 [0 0 0 0] ------- [0:0 1:0 32 0] [29] 0 0
r 29.000000000 _0_ RTR  --- 29 cbr 1000 [0 0 0 0] ------- [0:0 1:0 32 0] [29] 0 0
s 29.000000000 _0_ RTR  --- 0 XFXVanets 48 [0 0 0 0] ------- [0:255 -1:255 1 0] 
s 29.000000000 _1_ RTR  --- 0 XFXVanets 48 [0 0 0 0] ------- [1:255 -1:255 1 0] 
r 29.001088094 _0_ RTR  --- 0 XFXVanets 48 [0 ffffffff 1 800] ------- [1:255 -1:255 1 0] 
s 29.001088094 _0_ RTR  --- 29 XFXVanets 48 [0 0 0 0] ------- [0:255 1:255 30 0] 
r 29.002446189 _1_ RTR  --- 0 XFXVanets 48 [0 ffffffff 0 800] ------- [0:255 -1:255 1 0] 
r 29.004560377 _1_ RTR  --- 29 XFXVanets 48 [13a 1 0 800] ------- [0:255 1:255 30 0] 
s 30.000000000 _0_ AGT  --- 30 cbr 1000 [0 0 0 0] ------- [0:0 1:0 32 0] [30] 0 0
r 30.000000000 _0_ RTR  --- 30 cbr 1000 [0 0 0 0] ------- [0:0 1:0 32 0] [30] 0 0
s 30.000000000 _0_ RTR  --- 0 XFXVanets 48 [0 0 0 0] ------- [0:255 -1:255 1 0] 
s 30.000000000 _1_ RTR  --- 0 XFXVanets 48 [0 0 0 0] ------- [1:255 -1:255 1 0] 
r 30.001308094 _0_ RTR  --- 0 XFXVanets 48 [0 ffffffff 1 800] ------- [1:255 -1:255 1 0] 
s 30.001308094 _0_ RTR  --- 30 XFXVanets 48 [0 0 0 0] ------- [0:255 1:255 30 0] 
r 30.002326189 _1_ RTR  --- 0 XFXVanets 48 [0 ffffffff 0 800] ------- [0:255 -1:255 1 0] 
r 30.003980377 _1_ RTR  --- 30 XFXVanets 48 [13a 1 0 800] ------- [0:255 1:255 30 0] 
s 31.000000000 _0_ AGT  --- 31 cbr 1000 [0 0 0 0] ------- [0:0 1:0 32 0] [31] 0 0
r 31.000000000 _0_ RTR  --- 31 cbr 1000 [0 0 0 0] ------- [0:0 1:0 32 0] [31] 0 0
s 31.000000000 _0_ RTR  --- 0 XFXVanets 48 [0 0 0 0] ------- [0:255 -1:255 1 0] 
s 31.000000000 _1_ RTR  --- 0 XFXVanets 48 [0 0 0 0] ------- [1:255 -1:255 1 0] 
r 31.001248094 _1_ RTR  --- 0 XFXVanets 48 [0 ffffffff 0 800] ------- [0:255 -1:255 1 0] 
r 31.002186189 _0_ RTR  --- 0 XFXVanets 48 [0 ffffffff 1 800] ------- [1:255 -1:255 1 0] 
s 31.002186189 _0_ RTR  --- 31 XFXVanets 48 [0 0 0 0] ------- [0:255 1:255 30 0] 
r 31.004040471 _1_ RTR  --- 31 XFXVanets 48 [13a 1 0 800] ------- [0:255 1:255 30 0] 
s 32.000000000 _0_ AGT  --- 32 cbr 1000 [0 0 0 0] ------- [0:0 1:0 32 0] [32] 0 0
r 32.000000000 _0_ RTR  --- 32 cbr 1000 [0 0 0 0] ------- [0:0 1:0 32 0] [32] 0 0
s 32.000000000 _0_ RTR  --- 0 XFXVanets 48 [0 0 0 0] ------- [0:255 -1:255 1 0] 
s 32.000000000 _1_ RTR  --- 0 XFXVanets 48 [0 0 0 0] ------- [1:255 -1:255 1 0] 
r 32.001448094 _0_ RTR  --- 0 XFXVanets 48 [0 ffffffff 1 800] ------- [1:255 -1:255 1 0] 
s 32.001448094 _0_ RTR  --- 32 XFXVanets 48 [0 0 0 0] ------- [0:255 1:255 30 0] 
r 32.002366189 _1_ RTR  --- 0 XFXVanets 48 [0 ffffffff 0 800] ------- [0:255 -1:255 1 0] 
r 32.004540377 _1_ RTR  --- 32 XFXVanets 48 [13a 1 0 800] ------- [0:255 1:255 30 0] 
s 33.000000000 _0_ AGT  --- 33 cbr 1000 [0 0 0 0] ------- [0:0 1:0 32 0] [33] 0 0
r 33.000000000 _0_ RTR  --- 33 cbr 1000 [0 0 0 0] ------- [0:0 1:0 32 0] [33] 0 0
s 33.000000000 _0_ RTR  --- 0 XFXVanets 48 [0 0 0 0] ------- [0:255 -1:255 1 0] 
s 33.000000000 _1_ RTR  --- 0 XFXVanets 48 [0 0 0 0] ------- [1:255 -1:255 1 0] 
r 33.001268094 _0_ RTR  --- 0 XFXVanets 48 [0 ffffffff 1 800] ------- [1:255 -1:255 1 0] 
s 33.001268094 _0_ RTR  --- 33 XFXVanets 48 [0 0 0 0] ------- [0:255 1:255 30 0] 
r 33.002406189 _1_ RTR  --- 0 XFXVanets 48 [0 ffffffff 0 800] ------- [0:255 -1:255 1 0] 
r 33.004040377 _1_ RTR  --- 33 XFXVanets 48 [13a 1 0 800] ------- [0:255 1:255 30 0] 
s 34.000000000 _0_ AGT  --- 34 cbr 1000 [0 0 0 0] ------- [0:0 1:0 32 0] [34] 0 0
r 34.000000000 _0_ RTR  --- 34 cbr 1000 [0 0 0 0] ------- [0:0 1:0 32 0] [34] 0 0
s 34.000000000 _0_ RTR  --- 0 XFXVanets 48 [0 0 0 0] ------- [0:255 -1:255 1 0] 
s 34.000000000 _1_ RTR  --- 0 XFXVanets 48 [0 0 0 0] ------- [1:255 -1:255 1 0] 
r 34.001068094 _0_ RTR  --- 0 XFXVanets 48 [0 ffffffff 1 800] ------- [1:255 -1:255 1 0] 
s 34.001068094 _0_ RTR  --- 34 XFXVanets 48 [0 0 0 0] ------- [0:255 1:255 30 0] 
r 34.002246189 _1_ RTR  --- 0 XFXVanets 48 [0 ffffffff 0 800] ------- [0:255 -1:255 1 0] 
r 34.003840377 _1_ RTR  --- 34 XFXVanets 48 [13a 1 0 800] ------- [0:255 1:255 30 0] 
s 35.000000000 _0_ AGT  --- 35 cbr 1000 [0 0 0 0] ------- [0:0 1:0 32 0] [35] 0 0
r 35.000000000 _0_ RTR  --- 35 cbr 1000 [0 0 0 0] ------- [0:0 1:0 32 0] [35] 0 0
s 35.000000000 _0_ RTR  --- 0 XFXVanets 48 [0 0 0 0] ------- [0:255 -1:255 1 0] 
s 35.000000000 _1_ RTR  --- 0 XFXVanets 48 [0 0 0 0] ------- [1:255 -1:255 1 0] 
r 35.001028094 _1_ RTR  --- 0 XFXVanets 48 [0 ffffffff 0 800] ------- [0:255 -1:255 1 0] 
r 35.002406189 _0_ RTR  --- 0 XFXVanets 48 [0 ffffffff 1 800] ------- [1:255 -1:255 1 0] 
s 35.002406189 _0_ RTR  --- 35 XFXVanets 48 [0 0 0 0] ------- [0:255 1:255 30 0] 
r 35.004190471 _1_ RTR  --- 35 XFXVanets 48 [13a 1 0 800] ------- [0:255 1:255 30 0] 
s 36.000000000 _0_ AGT  --- 36 cbr 1000 [0 0 0 0] ------- [0:0 1:0 32 0] [36] 0 0
r 36.000000000 _0_ RTR  --- 36 cbr 1000 [0 0 0 0] ------- [0:0 1:0 32 0] [36] 0 0
s 36.000000000 _0_ RTR  --- 0 XFXVanets 48 [0 0 0 0] ------- [0:255 -1:255 1 0] 
s 36.000000000 _1_ RTR  --- 0 XFXVanets 48 [0 0 0 0] ------- [1:255 -1:255 1 0] 
r 36.001048094 _1_ RTR  --- 0 XFXVanets 48 [0 ffffffff 0 800] ------- [0:255 -1:255 1 0] 
r 36.002066189 _0_ RTR  --- 0 XFXVanets 48 [0 ffffffff 1 800] ------- [1:255 -1:255 1 0] 
s 36.002066189 _0_ RTR  --- 36 XFXVanets 48 [0 0 0 0] ------- [0:255 1:255 30 0] 
r 36.004040471 _1_ RTR  --- 36 XFXVanets 48 [13a 1 0 800] ------- [0:255 1:255 30 0] 
s 37.000000000 _0_ AGT  --- 37 cbr 1000 [0 0 0 0] ------- [0:0 1:0 32 0] [37] 0 0
r 37.000000000 _0_ RTR  --- 37 cbr 1000 [0 0 0 0] ------- [0:0 1:0 32 0] [37] 0 0
s 37.000000000 _0_ RTR  --- 0 XFXVanets 48 [0 0 0 0] ------- [0:255 -1:255 1 0] 
s 37.000000000 _1_ RTR  --- 0 XFXVanets 48 [0 0 0 0] ------- [1:255 -1:255 1 0] 
r 37.001008094 _0_ RTR  --- 0 XFXVanets 48 [0 ffffffff 1 800] ------- [1:255 -1:255 1 0] 
s 37.001008094 _0_ RTR  --- 37 XFXVanets 48 [0 0 0 0] ------- [0:255 1:255 30 0] 
r 37.002306189 _1_ RTR  --- 0 XFXVanets 48 [0 ffffffff 0 800] ------- [0:255 -1:255 1 0] 
r 37.004200377 _1_ RTR  --- 37 XFXVanets 48 [13a 1 0 800] ------- [0:255 1:255 30 0] 
s 38.000000000 _0_ AGT  --- 38 cbr 1000 [0 0 0 0] ------- [0:0 1:0 32 0] [38] 0 0
r 38.000000000 _0_ RTR  --- 38 cbr 1000 [0 0 0 0] ------- [0:0 1:0 32 0] [38] 0 0
s 38.000000000 _0_ RTR  --- 0 XFXVanets 48 [0 0 0 0] ------- [0:255 -1:255 1 0] 
s 38.000000000 _1_ RTR  --- 0 XFXVanets 48 [0 0 0 0] ------- [1:255 -1:255 1 0] 
r 38.000988094 _1_ RTR  --- 0 XFXVanets 48 [0 ffffffff 0 800] ------- [0:255 -1:255 1 0] 
r 38.002106189 _0_ RTR  --- 0 XFXVanets 48 [0 ffffffff 1 800] ------- [1:255 -1:255 1 0] 
s 38.002106189 _0_ RTR  --- 38 XFXVanets 48 [0 0 0 0] ------- [0:255 1:255 30 0] 
r 38.003820471 _1_ RTR  --- 38 XFXVanets 48 [13a 1 0 800] ------- [0:255 1:255 30 0] 
s 39.000000000 _0_ AGT  --- 39 cbr 1000 [0 0 0 0] ------- [0:0 1:0 32 0] [39] 0 0
r 39.000000000 _0_ RTR  --- 39 cbr 1000 [0 0 0 0] ------- [0:0 1:0 32 0] [39] 0 0
s 39.000000000 _0_ RTR  --- 0 XFXVanets 48 [0 0 0 0] ------- [0:255 -1:255 1 0] 
s 39.000000000 _1_ RTR  --- 0 XFXVanets 48 [0 0 0 0] ------- [1:255 -1:255 1 0] 
s 40.000000000 _0_ AGT  --- 40 cbr 1000 [0 0 0 0] ------- [0:0 1:0 32 0] [40] 0 0
r 40.000000000 _0_ RTR  --- 40 cbr 1000 [0 0 0 0] ------- [0:0 1:0 32 0] [40] 0 0
s 40.000000000 _0_ RTR  --- 0 XFXVanets 48 [0 0 0 0] ------- [0:255 -1:255 1 0] 
s 40.000000000 _1_ RTR  --- 0 XFXVanets 48 [0 0 0 0] ------- [1:255 -1:255 1 0] 
r 40.001408094 _0_ RTR  --- 0 XFXVanets 48 [0 ffffffff 1 800] ------- [1:255 -1:255 1 0] 
s 40.001408094 _0_ RTR  --- 39 XFXVanets 48 [0 0 0 0] ------- [0:255 1:255 30 0] 
r 40.002326189 _1_ RTR  --- 0 XFXVanets 48 [0 ffffffff 0 800] ------- [0:255 -1:255 1 0] 
r 40.003900377 _1_ RTR  --- 39 XFXVanets 48 [13a 1 0 800] ------- [0:255 1:255 30 0] 
s 41.000000000 _0_ AGT  --- 41 cbr 1000 [0 0 0 0] ------- [0:0 1:0 32 0] [41] 0 0
r 41.000000000 _0_ RTR  --- 41 cbr 1000 [0 0 0 0] ------- [0:0 1:0 32 0] [41] 0 0
s 41.000000000 _0_ RTR  --- 0 XFXVanets 48 [0 0 0 0] ------- [0:255 -1:255 1 0] 
s 41.000000000 _1_ RTR  --- 0 XFXVanets 48 [0 0 0 0] ------- [1:255 -1:255 1 0] 
r 41.001048094 _0_ RTR  --- 0 XFXVanets 48 [0 ffffffff 1 800] ------- [1:255 -1:255 1 0] 
s 41.001048094 _0_ RTR  --- 40 XFXVanets 48 [0 0 0 0] ------- [0:255 1:255 30 0] 
r 41.002086189 _1_ RTR  --- 0 XFXVanets 48 [0 ffffffff 0 800] ------- [0:255 -1:255 1 0] 
r 41.003760377 _1_ RTR  --- 40 XFXVanets 48 [13a 1 0 800] ------- [0:255 1:255 30 0] 
s 42.000000000 _0_ AGT  --- 42 cbr 1000 [0 0 0 0] ------- [0:0 1:0 32 0] [42] 0 0
r 42.000000000 _0_ RTR  --- 42 cbr 1000 [0 0 0 0] ------- [0:0 1:0 32 0] [42] 0 0
s 42.000000000 _0_ RTR  --- 0 XFXVanets 48 [0 0 0 0] ------- [0:255 -1:255 1 0] 
s 42.000000000 _1_ RTR  --- 0 XFXVanets 48 [0 0 0 0] ------- [1:255 -1:255 1 0] 
r 42.001328094 _0_ RTR  --- 0 XFXVanets 48 [0 ffffffff 1 800] ------- [1:255 -1:255 1 0] 
s 42.001328094 _0_ RTR  --- 41 XFXVanets 48 [0 0 0 0] ------- [0:255 1:255 30 0] 
r 42.002366189 _1_ RTR  --- 0 XFXVanets 48 [0 ffffffff 0 800] ------- [0:255 -1:255 1 0] 
r 42.004540377 _1_ RTR  --- 41 XFXVanets 48 [13a 1 0 800] ------- [0:255 1:255 30 0] 
s 43.000000000 _0_ AGT  --- 43 cbr 1000 [0 0 0 0] ------- [0:0 1:0 32 0] [43] 0 0
r 43.000000000 _0_ RTR  --- 43 cbr 1000 [0 0 0 0] ------- [0:0 1:0 32 0] [43] 0 0
s 43.000000000 _0_ RTR  --- 0 XFXVanets 48 [0 0 0 0] ------- [0:255 -1:255 1 0] 
s 43.000000000 _1_ RTR  --- 0 XFXVanets 48 [0 0 0 0] ------- [1:255 -1:255 1 0] 
r 43.000968094 _0_ RTR  --- 0 XFXVanets 48 [0 ffffffff 1 800] ------- [1:255 -1:255 1 0] 
s 43.000968094 _0_ RTR  --- 42 XFXVanets 48 [0 0 0 0] ------- [0:255 1:255 30 0] 
r 43.002006189 _1_ RTR  --- 0 XFXVanets 48 [0 ffffffff 0 800] ------- [0:255 -1:255 1 0] 
r 43.003800377 _1_ RTR  --- 42 XFXVanets 48 [13a 1 0 800] ------- [0:255 1:255 30 0] 
s 44.000000000 _0_ AGT  --- 44 cbr 1000 [0 0 0 0] ------- [0:0 1:0 32 0] [44] 0 0
r 44.000000000 _0_ RTR  --- 44 cbr 1000 [0 0 0 0] ------- [0:0 1:0 32 0] [44] 0 0
s 44.000000000 _0_ RTR  --- 0 XFXVanets 48 [0 0 0 0] ------- [0:255 -1:255 1 0] 
s 44.000000000 _1_ RTR  --- 0 XFXVanets 48 [0 0 0 0] ------- [1:255 -1:255 1 0] 
r 44.001168094 _0_ RTR  --- 0 XFXVanets 48 [0 ffffffff 1 800] ------- [1:255 -1:255 1 0] 
s 44.001168094 _0_ RTR  --- 43 XFXVanets 48 [0 0 0 0] ------- [0:255 1:255 30 0] 
r 44.002426189 _1_ RTR  --- 0 XFXVanets 48 [0 ffffffff 0 800] ------- [0:255 -1:255 1 0] 
r 44.004220377 _1_ RTR  --- 43 XFXVanets 48 [13a 1 0 800] ------- [0:255 1:255 30 0] 