V -t * -v 1.0a5 -a 0
W -t * -x 500 -y 400
A -t * -n 1 -p 0 -o 0xffffffff -c 31 -a 1
A -t * -h 1 -m 2147483647 -s 0
+ -t 0.000000000 -s 0 -d -1 -p cbr -e 1000 -c 2 -a 0 -i 0 -k AGT 
- -t 0.000000000 -s 0 -d -1 -p cbr -e 1000 -c 2 -a 0 -i 0 -k AGT
h -t 0.000000000 -s 0 -d -1 -p cbr -e 1000 -c 2 -a 0 -i 0 -k AGT
+ -t 0.000000000 -s 0 -d -1 -p XFXVanets -e 48 -c 2 -a 0 -i 0 -k RTR 
- -t 0.000000000 -s 0 -d -1 -p XFXVanets -e 48 -c 2 -a 0 -i 0 -k RTR
h -t 0.000000000 -s 0 -d -1 -p XFXVanets -e 48 -c 2 -a 0 -i 0 -k RTR
+ -t 0.000000000 -s 1 -d -1 -p XFXVanets -e 48 -c 2 -a 0 -i 0 -k RTR 
- -t 0.000000000 -s 1 -d -1 -p XFXVanets -e 48 -c 2 -a 0 -i 0 -k RTR
h -t 0.000000000 -s 1 -d -1 -p XFXVanets -e 48 -c 2 -a 0 -i 0 -k RTR
+ -t 0.000000000 -s 2 -d -1 -p XFXVanets -e 48 -c 2 -a 0 -i 0 -k RTR 
- -t 0.000000000 -s 2 -d -1 -p XFXVanets -e 48 -c 2 -a 0 -i 0 -k RTR
h -t 0.000000000 -s 2 -d -1 -p XFXVanets -e 48 -c 2 -a 0 -i 0 -k RTR
n -t 1.000000 -s 1 -x 250.000000 -y 250.000000 -U 0.000000 -V 0.000000 -T 0.000000
n -t 1.000000 -s 0 -x 5.000000 -y 50.000000 -U 0.000000 -V -10.000000 -T 4.500000
n -t 1.000000 -s 2 -x 50.000000 -y 50.000000 -U 0.000000 -V 0.000000 -T 0.000000
+ -t 1.000000000 -s 0 -d -1 -p cbr -e 1000 -c 2 -a 0 -i 1 -k AGT 
- -t 1.000000000 -s 0 -d -1 -p cbr -e 1000 -c 2 -a 0 -i 1 -k AGT
h -t 1.000000000 -s 0 -d -1 -p cbr -e 1000 -c 2 -a 0 -i 1 -k AGT
+ -t 1.000000000 -s 0 -d -1 -p XFXVanets -e 48 -c 2 -a 0 -i 0 -k RTR 
- -t 1.000000000 -s 0 -d -1 -p XFXVanets -e 48 -c 2 -a 0 -i 0 -k RTR
h -t 1.000000000 -s 0 -d -1 -p XFXVanets -e 48 -c 2 -a 0 -i 0 -k RTR
+ -t 1.000000000 -s 1 -d -1 -p XFXVanets -e 48 -c 2 -a 0 -i 0 -k RTR 
- -t 1.000000000 -s 1 -d -1 -p XFXVanets -e 48 -c 2 -a 0 -i 0 -k RTR
h -t 1.000000000 -s 1 -d -1 -p XFXVanets -e 48 -c 2 -a 0 -i 0 -k RTR
+ -t 1.000000000 -s 2 -d -1 -p XFXVanets -e 48 -c 2 -a 0 -i 0 -k RTR 
- -t 1.000000000 -s 2 -d -1 -p XFXVanets -e 48 -c 2 -a 0 -i 0 -k RTR
h -t 1.000000000 -s 2 -d -1 -p XFXVanets -e 48 -c 2 -a 0 -i 0 -k RTR
+ -t 2.000000000 -s 0 -d -1 -p cbr -e 1000 -c 2 -a 0 -i 2 -k AGT 
- -t 2.000000000 -s 0 -d -1 -p cbr -e 1000 -c 2 -a 0 -i 2 -k AGT
h -t 2.000000000 -s 0 -d -1 -p cbr -e 1000 -c 2 -a 0 -i 2 -k AGT
+ -t 2.000000000 -s 0 -d -1 -p XFXVanets -e 48 -c 2 -a 0 -i 0 -k RTR 
- -t 2.000000000 -s 0 -d -1 -p XFXVanets -e 48 -c 2 -a 0 -i 0 -k RTR
h -t 2.000000000 -s 0 -d -1 -p XFXVanets -e 48 -c 2 -a 0 -i 0 -k RTR
+ -t 2.000000000 -s 1 -d -1 -p XFXVanets -e 48 -c 2 -a 0 -i 0 -k RTR 
- -t 2.000000000 -s 1 -d -1 -p XFXVanets -e 48 -c 2 -a 0 -i 0 -k RTR
h -t 2.000000000 -s 1 -d -1 -p XFXVanets -e 48 -c 2 -a 0 -i 0 -k RTR
+ -t 2.000000000 -s 2 -d -1 -p XFXVanets -e 48 -c 2 -a 0 -i 0 -k RTR 
- -t 2.000000000 -s 2 -d -1 -p XFXVanets -e 48 -c 2 -a 0 -i 0 -k RTR
h -t 2.000000000 -s 2 -d -1 -p XFXVanets -e 48 -c 2 -a 0 -i 0 -k RTR
n -t 3.000000 -s 0 -x 5.000000 -y 30.000000 -U 7.071068 -V 7.071068 -T 2.828427
n -t 3.000000 -s 2 -x 50.000000 -y 50.000000 -U -9.805807 -V -1.961161 -T 2.549510
+ -t 3.000000000 -s 0 -d -1 -p cbr -e 1000 -c 2 -a 0 -i 3 -k AGT 
- -t 3.000000000 -s 0 -d -1 -p cbr -e 1000 -c 2 -a 0 -i 3 -k AGT
h -t 3.000000000 -s 0 -d -1 -p cbr -e 1000 -c 2 -a 0 -i 3 -k AGT
+ -t 3.000000000 -s 0 -d -1 -p XFXVanets -e 48 -c 2 -a 0 -i 0 -k RTR 
- -t 3.000000000 -s 0 -d -1 -p XFXVanets -e 48 -c 2 -a 0 -i 0 -k RTR
h -t 3.000000000 -s 0 -d -1 -p XFXVanets -e 48 -c 2 -a 0 -i 0 -k RTR
+ -t 3.000000000 -s 1 -d -1 -p XFXVanets -e 48 -c 2 -a 0 -i 0 -k RTR 
- -t 3.000000000 -s 1 -d -1 -p XFXVanets -e 48 -c 2 -a 0 -i 0 -k RTR
h -t 3.000000000 -s 1 -d -1 -p XFXVanets -e 48 -c 2 -a 0 -i 0 -k RTR
+ -t 3.000000000 -s 2 -d -1 -p XFXVanets -e 48 -c 2 -a 0 -i 0 -k RTR 
- -t 3.000000000 -s 2 -d -1 -p XFXVanets -e 48 -c 2 -a 0 -i 0 -k RTR
h -t 3.000000000 -s 2 -d -1 -p XFXVanets -e 48 -c 2 -a 0 -i 0 -k RTR
+ -t 4.000000000 -s 0 -d -1 -p cbr -e 1000 -c 2 -a 0 -i 4 -k AGT 
- -t 4.000000000 -s 0 -d -1 -p cbr -e 1000 -c 2 -a 0 -i 4 -k AGT
h -t 4.000000000 -s 0 -d -1 -p cbr -e 1000 -c 2 -a 0 -i 4 -k AGT
+ -t 4.000000000 -s 0 -d -1 -p XFXVanets -e 48 -c 2 -a 0 -i 0 -k RTR 
- -t 4.000000000 -s 0 -d -1 -p XFXVanets -e 48 -c 2 -a 0 -i 0 -k RTR
h -t 4.000000000 -s 0 -d -1 -p XFXVanets -e 48 -c 2 -a 0 -i 0 -k RTR
+ -t 4.000000000 -s 1 -d -1 -p XFXVanets -e 48 -c 2 -a 0 -i 0 -k RTR 
- -t 4.000000000 -s 1 -d -1 -p XFXVanets -e 48 -c 2 -a 0 -i 0 -k RTR
h -t 4.000000000 -s 1 -d -1 -p XFXVanets -e 48 -c 2 -a 0 -i 0 -k RTR
+ -t 4.000000000 -s 2 -d -1 -p XFXVanets -e 48 -c 2 -a 0 -i 0 -k RTR 
- -t 4.000000000 -s 2 -d -1 -p XFXVanets -e 48 -c 2 -a 0 -i 0 -k RTR
h -t 4.000000000 -s 2 -d -1 -p XFXVanets -e 48 -c 2 -a 0 -i 0 -k RTR
+ -t 5.000000000 -s 0 -d -1 -p cbr -e 1000 -c 2 -a 0 -i 5 -k AGT 
- -t 5.000000000 -s 0 -d -1 -p cbr -e 1000 -c 2 -a 0 -i 5 -k AGT
h -t 5.000000000 -s 0 -d -1 -p cbr -e 1000 -c 2 -a 0 -i 5 -k AGT
+ -t 5.000000000 -s 0 -d -1 -p XFXVanets -e 48 -c 2 -a 0 -i 0 -k RTR 
- -t 5.000000000 -s 0 -d -1 -p XFXVanets -e 48 -c 2 -a 0 -i 0 -k RTR
h -t 5.000000000 -s 0 -d -1 -p XFXVanets -e 48 -c 2 -a 0 -i 0 -k RTR
+ -t 5.000000000 -s 1 -d -1 -p XFXVanets -e 48 -c 2 -a 0 -i 0 -k RTR 
- -t 5.000000000 -s 1 -d -1 -p XFXVanets -e 48 -c 2 -a 0 -i 0 -k RTR
h -t 5.000000000 -s 1 -d -1 -p XFXVanets -e 48 -c 2 -a 0 -i 0 -k RTR
+ -t 5.000000000 -s 2 -d -1 -p XFXVanets -e 48 -c 2 -a 0 -i 0 -k RTR 
- -t 5.000000000 -s 2 -d -1 -p XFXVanets -e 48 -c 2 -a 0 -i 0 -k RTR
h -t 5.000000000 -s 2 -d -1 -p XFXVanets -e 48 -c 2 -a 0 -i 0 -k RTR
r -t 5.001248038 -s 0 -d -1 -p XFXVanets -e 48 -c 2 -a 0 -i 0 -k RTR
r -t 5.002206076 -s 2 -d -1 -p XFXVanets -e 48 -c 2 -a 0 -i 0 -k RTR
n -t 6.000000 -s 0 -x 25.000000 -y 50.000000 -U -2.747211 -V -9.615239 -T 3.640055
n -t 6.000000 -s 2 -x 25.000000 -y 45.000000 -U 7.391963 -V 6.734900 -T 30.438463
+ -t 6.000000000 -s 0 -d -1 -p cbr -e 1000 -c 2 -a 0 -i 6 -k AGT 
- -t 6.000000000 -s 0 -d -1 -p cbr -e 1000 -c 2 -a 0 -i 6 -k AGT
h -t 6.000000000 -s 0 -d -1 -p cbr -e 1000 -c 2 -a 0 -i 6 -k AGT
+ -t 6.000000000 -s 0 -d -1 -p XFXVanets -e 48 -c 2 -a 0 -i 0 -k RTR 
- -t 6.000000000 -s 0 -d -1 -p XFXVanets -e 48 -c 2 -a 0 -i 0 -k RTR
h -t 6.000000000 -s 0 -d -1 -p XFXVanets -e 48 -c 2 -a 0 -i 0 -k RTR
+ -t 6.000000000 -s 1 -d -1 -p XFXVanets -e 48 -c 2 -a 0 -i 0 -k RTR 
- -t 6.000000000 -s 1 -d -1 -p XFXVanets -e 48 -c 2 -a 0 -i 0 -k RTR
h -t 6.000000000 -s 1 -d -1 -p XFXVanets -e 48 -c 2 -a 0 -i 0 -k RTR
+ -t 6.000000000 -s 2 -d -1 -p XFXVanets -e 48 -c 2 -a 0 -i 0 -k RTR 
- -t 6.000000000 -s 2 -d -1 -p XFXVanets -e 48 -c 2 -a 0 -i 0 -k RTR
h -t 6.000000000 -s 2 -d -1 -p XFXVanets -e 48 -c 2 -a 0 -i 0 -k RTR
r -t 6.001048017 -s 0 -d -1 -p XFXVanets -e 48 -c 2 -a 0 -i 0 -k RTR
r -t 6.002126033 -s 2 -d -1 -p XFXVanets -e 48 -c 2 -a 0 -i 0 -k RTR
+ -t 7.000000000 -s 0 -d -1 -p cbr -e 1000 -c 2 -a 0 -i 7 -k AGT 
- -t 7.000000000 -s 0 -d -1 -p cbr -e 1000 -c 2 -a 0 -i 7 -k AGT
h -t 7.000000000 -s 0 -d -1 -p cbr -e 1000 -c 2 -a 0 -i 7 -k AGT
+ -t 7.000000000 -s 0 -d -1 -p XFXVanets -e 48 -c 2 -a 0 -i 0 -k RTR 
- -t 7.000000000 -s 0 -d -1 -p XFXVanets -e 48 -c 2 -a 0 -i 0 -k RTR
h -t 7.000000000 -s 0 -d -1 -p XFXVanets -e 48 -c 2 -a 0 -i 0 -k RTR
+ -t 7.000000000 -s 1 -d -1 -p XFXVanets -e 48 -c 2 -a 0 -i 0 -k RTR 
- -t 7.000000000 -s 1 -d -1 -p XFXVanets -e 48 -c 2 -a 0 -i 0 -k RTR
h -t 7.000000000 -s 1 -d -1 -p XFXVanets -e 48 -c 2 -a 0 -i 0 -k RTR
+ -t 7.000000000 -s 2 -d -1 -p XFXVanets -e 48 -c 2 -a 0 -i 0 -k RTR 
- -t 7.000000000 -s 2 -d -1 -p XFXVanets -e 48 -c 2 -a 0 -i 0 -k RTR
h -t 7.000000000 -s 2 -d -1 -p XFXVanets -e 48 -c 2 -a 0 -i 0 -k RTR
+ -t 8.000000000 -s 0 -d -1 -p cbr -e 1000 -c 2 -a 0 -i 8 -k AGT 
- -t 8.000000000 -s 0 -d -1 -p cbr -e 1000 -c 2 -a 0 -i 8 -k AGT
h -t 8.000000000 -s 0 -d -1 -p cbr -e 1000 -c 2 -a 0 -i 8 -k AGT
+ -t 8.000000000 -s 0 -d -1 -p XFXVanets -e 48 -c 2 -a 0 -i 0 -k RTR 
- -t 8.000000000 -s 0 -d -1 -p XFXVanets -e 48 -c 2 -a 0 -i 0 -k RTR
h -t 8.000000000 -s 0 -d -1 -p XFXVanets -e 48 -c 2 -a 0 -i 0 -k RTR
+ -t 8.000000000 -s 1 -d -1 -p XFXVanets -e 48 -c 2 -a 0 -i 0 -k RTR 
- -t 8.000000000 -s 1 -d -1 -p XFXVanets -e 48 -c 2 -a 0 -i 0 -k RTR
h -t 8.000000000 -s 1 -d -1 -p XFXVanets -e 48 -c 2 -a 0 -i 0 -k RTR
+ -t 8.000000000 -s 2 -d -1 -p XFXVanets -e 48 -c 2 -a 0 -i 0 -k RTR 
- -t 8.000000000 -s 2 -d -1 -p XFXVanets -e 48 -c 2 -a 0 -i 0 -k RTR
h -t 8.000000000 -s 2 -d -1 -p XFXVanets -e 48 -c 2 -a 0 -i 0 -k RTR
n -t 9.000000 -s 0 -x 16.758366 -y 21.154282 -U 7.138013 -V 7.003483 -T 32.675989
+ -t 9.000000000 -s 0 -d -1 -p cbr -e 1000 -c 2 -a 0 -i 9 -k AGT 
- -t 9.000000000 -s 0 -d -1 -p cbr -e 1000 -c 2 -a 0 -i 9 -k AGT
h -t 9.000000000 -s 0 -d -1 -p cbr -e 1000 -c 2 -a 0 -i 9 -k AGT
+ -t 9.000000000 -s 0 -d -1 -p XFXVanets -e 48 -c 2 -a 0 -i 0 -k RTR 
- -t 9.000000000 -s 0 -d -1 -p XFXVanets -e 48 -c 2 -a 0 -i 0 -k RTR
h -t 9.000000000 -s 0 -d -1 -p XFXVanets -e 48 -c 2 -a 0 -i 0 -k RTR
+ -t 9.000000000 -s 1 -d -1 -p XFXVanets -e 48 -c 2 -a 0 -i 0 -k RTR 
- -t 9.000000000 -s 1 -d -1 -p XFXVanets -e 48 -c 2 -a 0 -i 0 -k RTR
h -t 9.000000000 -s 1 -d -1 -p XFXVanets -e 48 -c 2 -a 0 -i 0 -k RTR
+ -t 9.000000000 -s 2 -d -1 -p XFXVanets -e 48 -c 2 -a 0 -i 0 -k RTR 
- -t 9.000000000 -s 2 -d -1 -p XFXVanets -e 48 -c 2 -a 0 -i 0 -k RTR
h -t 9.000000000 -s 2 -d -1 -p XFXVanets -e 48 -c 2 -a 0 -i 0 -k RTR
+ -t 10.000000000 -s 0 -d -1 -p cbr -e 1000 -c 2 -a 0 -i 10 -k AGT 
- -t 10.000000000 -s 0 -d -1 -p cbr -e 1000 -c 2 -a 0 -i 10 -k AGT
h -t 10.000000000 -s 0 -d -1 -p cbr -e 1000 -c 2 -a 0 -i 10 -k AGT
+ -t 10.000000000 -s 0 -d -1 -p XFXVanets -e 48 -c 2 -a 0 -i 0 -k RTR 
- -t 10.000000000 -s 0 -d -1 -p XFXVanets -e 48 -c 2 -a 0 -i 0 -k RTR
h -t 10.000000000 -s 0 -d -1 -p XFXVanets -e 48 -c 2 -a 0 -i 0 -k RTR
+ -t 10.000000000 -s 1 -d -1 -p XFXVanets -e 48 -c 2 -a 0 -i 0 -k RTR 
- -t 10.000000000 -s 1 -d -1 -p XFXVanets -e 48 -c 2 -a 0 -i 0 -k RTR
h -t 10.000000000 -s 1 -d -1 -p XFXVanets -e 48 -c 2 -a 0 -i 0 -k RTR
+ -t 10.000000000 -s 2 -d -1 -p XFXVanets -e 48 -c 2 -a 0 -i 0 -k RTR 
- -t 10.000000000 -s 2 -d -1 -p XFXVanets -e 48 -c 2 -a 0 -i 0 -k RTR
h -t 10.000000000 -s 2 -d -1 -p XFXVanets -e 48 -c 2 -a 0 -i 0 -k RTR
+ -t 11.000000000 -s 0 -d -1 -p cbr -e 1000 -c 2 -a 0 -i 11 -k AGT 
- -t 11.000000000 -s 0 -d -1 -p cbr -e 1000 -c 2 -a 0 -i 11 -k AGT
h -t 11.000000000 -s 0 -d -1 -p cbr -e 1000 -c 2 -a 0 -i 11 -k AGT
+ -t 11.000000000 -s 0 -d -1 -p XFXVanets -e 48 -c 2 -a 0 -i 0 -k RTR 
- -t 11.000000000 -s 0 -d -1 -p XFXVanets -e 48 -c 2 -a 0 -i 0 -k RTR
h -t 11.000000000 -s 0 -d -1 -p XFXVanets -e 48 -c 2 -a 0 -i 0 -k RTR
+ -t 11.000000000 -s 1 -d -1 -p XFXVanets -e 48 -c 2 -a 0 -i 0 -k RTR 
- -t 11.000000000 -s 1 -d -1 -p XFXVanets -e 48 -c 2 -a 0 -i 0 -k RTR
h -t 11.000000000 -s 1 -d -1 -p XFXVanets -e 48 -c 2 -a 0 -i 0 -k RTR
+ -t 11.000000000 -s 2 -d -1 -p XFXVanets -e 48 -c 2 -a 0 -i 0 -k RTR 
- -t 11.000000000 -s 2 -d -1 -p XFXVanets -e 48 -c 2 -a 0 -i 0 -k RTR
h -t 11.000000000 -s 2 -d -1 -p XFXVanets -e 48 -c 2 -a 0 -i 0 -k RTR
+ -t 12.000000000 -s 0 -d -1 -p cbr -e 1000 -c 2 -a 0 -i 12 -k AGT 
- -t 12.000000000 -s 0 -d -1 -p cbr -e 1000 -c 2 -a 0 -i 12 -k AGT
h -t 12.000000000 -s 0 -d -1 -p cbr -e 1000 -c 2 -a 0 -i 12 -k AGT
+ -t 12.000000000 -s 0 -d -1 -p XFXVanets -e 48 -c 2 -a 0 -i 0 -k RTR 
- -t 12.000000000 -s 0 -d -1 -p XFXVanets -e 48 -c 2 -a 0 -i 0 -k RTR
h -t 12.000000000 -s 0 -d -1 -p XFXVanets -e 48 -c 2 -a 0 -i 0 -k RTR
+ -t 12.000000000 -s 1 -d -1 -p XFXVanets -e 48 -c 2 -a 0 -i 0 -k RTR 
- -t 12.000000000 -s 1 -d -1 -p XFXVanets -e 48 -c 2 -a 0 -i 0 -k RTR
h -t 12.000000000 -s 1 -d -1 -p XFXVanets -e 48 -c 2 -a 0 -i 0 -k RTR
+ -t 12.000000000 -s 2 -d -1 -p XFXVanets -e 48 -c 2 -a 0 -i 0 -k RTR 
- -t 12.000000000 -s 2 -d -1 -p XFXVanets -e 48 -c 2 -a 0 -i 0 -k RTR
h -t 12.000000000 -s 2 -d -1 -p XFXVanets -e 48 -c 2 -a 0 -i 0 -k RTR
+ -t 13.000000000 -s 0 -d -1 -p cbr -e 1000 -c 2 -a 0 -i 13 -k AGT 
- -t 13.000000000 -s 0 -d -1 -p cbr -e 1000 -c 2 -a 0 -i 13 -k AGT
h -t 13.000000000 -s 0 -d -1 -p cbr -e 1000 -c 2 -a 0 -i 13 -k AGT
+ -t 13.000000000 -s 0 -d -1 -p XFXVanets -e 48 -c 2 -a 0 -i 0 -k RTR 
- -t 13.000000000 -s 0 -d -1 -p XFXVanets -e 48 -c 2 -a 0 -i 0 -k RTR
h -t 13.000000000 -s 0 -d -1 -p XFXVanets -e 48 -c 2 -a 0 -i 0 -k RTR
+ -t 13.000000000 -s 1 -d -1 -p XFXVanets -e 48 -c 2 -a 0 -i 0 -k RTR 
- -t 13.000000000 -s 1 -d -1 -p XFXVanets -e 48 -c 2 -a 0 -i 0 -k RTR
h -t 13.000000000 -s 1 -d -1 -p XFXVanets -e 48 -c 2 -a 0 -i 0 -k RTR
+ -t 13.000000000 -s 2 -d -1 -p XFXVanets -e 48 -c 2 -a 0 -i 0 -k RTR 
- -t 13.000000000 -s 2 -d -1 -p XFXVanets -e 48 -c 2 -a 0 -i 0 -k RTR
h -t 13.000000000 -s 2 -d -1 -p XFXVanets -e 48 -c 2 -a 0 -i 0 -k RTR
+ -t 14.000000000 -s 0 -d -1 -p cbr -e 1000 -c 2 -a 0 -i 14 -k AGT 
- -t 14.000000000 -s 0 -d -1 -p cbr -e 1000 -c 2 -a 0 -i 14 -k AGT
h -t 14.000000000 -s 0 -d -1 -p cbr -e 1000 -c 2 -a 0 -i 14 -k AGT
+ -t 14.000000000 -s 0 -d -1 -p XFXVanets -e 48 -c 2 -a 0 -i 0 -k RTR 
- -t 14.000000000 -s 0 -d -1 -p XFXVanets -e 48 -c 2 -a 0 -i 0 -k RTR
h -t 14.000000000 -s 0 -d -1 -p XFXVanets -e 48 -c 2 -a 0 -i 0 -k RTR
+ -t 14.000000000 -s 1 -d -1 -p XFXVanets -e 48 -c 2 -a 0 -i 0 -k RTR 
- -t 14.000000000 -s 1 -d -1 -p XFXVanets -e 48 -c 2 -a 0 -i 0 -k RTR
h -t 14.000000000 -s 1 -d -1 -p XFXVanets -e 48 -c 2 -a 0 -i 0 -k RTR
+ -t 14.000000000 -s 2 -d -1 -p XFXVanets -e 48 -c 2 -a 0 -i 0 -k RTR 
- -t 14.000000000 -s 2 -d -1 -p XFXVanets -e 48 -c 2 -a 0 -i 0 -k RTR
h -t 14.000000000 -s 2 -d -1 -p XFXVanets -e 48 -c 2 -a 0 -i 0 -k RTR
+ -t 15.000000000 -s 0 -d -1 -p cbr -e 1000 -c 2 -a 0 -i 15 -k AGT 
- -t 15.000000000 -s 0 -d -1 -p cbr -e 1000 -c 2 -a 0 -i 15 -k AGT
h -t 15.000000000 -s 0 -d -1 -p cbr -e 1000 -c 2 -a 0 -i 15 -k AGT
+ -t 15.000000000 -s 0 -d -1 -p XFXVanets -e 48 -c 2 -a 0 -i 0 -k RTR 
- -t 15.000000000 -s 0 -d -1 -p XFXVanets -e 48 -c 2 -a 0 -i 0 -k RTR
h -t 15.000000000 -s 0 -d -1 -p XFXVanets -e 48 -c 2 -a 0 -i 0 -k RTR
+ -t 15.000000000 -s 1 -d -1 -p XFXVanets -e 48 -c 2 -a 0 -i 0 -k RTR 
- -t 15.000000000 -s 1 -d -1 -p XFXVanets -e 48 -c 2 -a 0 -i 0 -k RTR
h -t 15.000000000 -s 1 -d -1 -p XFXVanets -e 48 -c 2 -a 0 -i 0 -k RTR
+ -t 15.000000000 -s 2 -d -1 -p XFXVanets -e 48 -c 2 -a 0 -i 0 -k RTR 
- -t 15.000000000 -s 2 -d -1 -p XFXVanets -e 48 -c 2 -a 0 -i 0 -k RTR
h -t 15.000000000 -s 2 -d -1 -p XFXVanets -e 48 -c 2 -a 0 -i 0 -k RTR
+ -t 16.000000000 -s 0 -d -1 -p cbr -e 1000 -c 2 -a 0 -i 16 -k AGT 
- -t 16.000000000 -s 0 -d -1 -p cbr -e 1000 -c 2 -a 0 -i 16 -k AGT
h -t 16.000000000 -s 0 -d -1 -p cbr -e 1000 -c 2 -a 0 -i 16 -k AGT
+ -t 16.000000000 -s 0 -d -1 -p XFXVanets -e 48 -c 2 -a 0 -i 0 -k RTR 
- -t 16.000000000 -s 0 -d -1 -p XFXVanets -e 48 -c 2 -a 0 -i 0 -k RTR
h -t 16.000000000 -s 0 -d -1 -p XFXVanets -e 48 -c 2 -a 0 -i 0 -k RTR
+ -t 16.000000000 -s 1 -d -1 -p XFXVanets -e 48 -c 2 -a 0 -i 0 -k RTR 
- -t 16.000000000 -s 1 -d -1 -p XFXVanets -e 48 -c 2 -a 0 -i 0 -k RTR
h -t 16.000000000 -s 1 -d -1 -p XFXVanets -e 48 -c 2 -a 0 -i 0 -k RTR
+ -t 16.000000000 -s 2 -d -1 -p XFXVanets -e 48 -c 2 -a 0 -i 0 -k RTR 
- -t 16.000000000 -s 2 -d -1 -p XFXVanets -e 48 -c 2 -a 0 -i 0 -k RTR
h -t 16.000000000 -s 2 -d -1 -p XFXVanets -e 48 -c 2 -a 0 -i 0 -k RTR
+ -t 17.000000000 -s 0 -d -1 -p cbr -e 1000 -c 2 -a 0 -i 17 -k AGT 
- -t 17.000000000 -s 0 -d -1 -p cbr -e 1000 -c 2 -a 0 -i 17 -k AGT
h -t 17.000000000 -s 0 -d -1 -p cbr -e 1000 -c 2 -a 0 -i 17 -k AGT
+ -t 17.000000000 -s 0 -d -1 -p XFXVanets -e 48 -c 2 -a 0 -i 0 -k RTR 
- -t 17.000000000 -s 0 -d -1 -p XFXVanets -e 48 -c 2 -a 0 -i 0 -k RTR
h -t 17.000000000 -s 0 -d -1 -p XFXVanets -e 48 -c 2 -a 0 -i 0 -k RTR
+ -t 17.000000000 -s 1 -d -1 -p XFXVanets -e 48 -c 2 -a 0 -i 0 -k RTR 
- -t 17.000000000 -s 1 -d -1 -p XFXVanets -e 48 -c 2 -a 0 -i 0 -k RTR
h -t 17.000000000 -s 1 -d -1 -p XFXVanets -e 48 -c 2 -a 0 -i 0 -k RTR
+ -t 17.000000000 -s 2 -d -1 -p XFXVanets -e 48 -c 2 -a 0 -i 0 -k RTR 
- -t 17.000000000 -s 2 -d -1 -p XFXVanets -e 48 -c 2 -a 0 -i 0 -k RTR
h -t 17.000000000 -s 2 -d -1 -p XFXVanets -e 48 -c 2 -a 0 -i 0 -k RTR
+ -t 18.000000000 -s 0 -d -1 -p cbr -e 1000 -c 2 -a 0 -i 18 -k AGT 
- -t 18.000000000 -s 0 -d -1 -p cbr -e 1000 -c 2 -a 0 -i 18 -k AGT
h -t 18.000000000 -s 0 -d -1 -p cbr -e 1000 -c 2 -a 0 -i 18 -k AGT
+ -t 18.000000000 -s 0 -d -1 -p XFXVanets -e 48 -c 2 -a 0 -i 0 -k RTR 
- -t 18.000000000 -s 0 -d -1 -p XFXVanets -e 48 -c 2 -a 0 -i 0 -k RTR
h -t 18.000000000 -s 0 -d -1 -p XFXVanets -e 48 -c 2 -a 0 -i 0 -k RTR
+ -t 18.000000000 -s 1 -d -1 -p XFXVanets -e 48 -c 2 -a 0 -i 0 -k RTR 
- -t 18.000000000 -s 1 -d -1 -p XFXVanets -e 48 -c 2 -a 0 -i 0 -k RTR
h -t 18.000000000 -s 1 -d -1 -p XFXVanets -e 48 -c 2 -a 0 -i 0 -k RTR
+ -t 18.000000000 -s 2 -d -1 -p XFXVanets -e 48 -c 2 -a 0 -i 0 -k RTR 
- -t 18.000000000 -s 2 -d -1 -p XFXVanets -e 48 -c 2 -a 0 -i 0 -k RTR
h -t 18.000000000 -s 2 -d -1 -p XFXVanets -e 48 -c 2 -a 0 -i 0 -k RTR
+ -t 19.000000000 -s 0 -d -1 -p cbr -e 1000 -c 2 -a 0 -i 19 -k AGT 
- -t 19.000000000 -s 0 -d -1 -p cbr -e 1000 -c 2 -a 0 -i 19 -k AGT
h -t 19.000000000 -s 0 -d -1 -p cbr -e 1000 -c 2 -a 0 -i 19 -k AGT
+ -t 19.000000000 -s 0 -d -1 -p XFXVanets -e 48 -c 2 -a 0 -i 0 -k RTR 
- -t 19.000000000 -s 0 -d -1 -p XFXVanets -e 48 -c 2 -a 0 -i 0 -k RTR
h -t 19.000000000 -s 0 -d -1 -p XFXVanets -e 48 -c 2 -a 0 -i 0 -k RTR
+ -t 19.000000000 -s 1 -d -1 -p XFXVanets -e 48 -c 2 -a 0 -i 0 -k RTR 
- -t 19.000000000 -s 1 -d -1 -p XFXVanets -e 48 -c 2 -a 0 -i 0 -k RTR
h -t 19.000000000 -s 1 -d -1 -p XFXVanets -e 48 -c 2 -a 0 -i 0 -k RTR
+ -t 19.000000000 -s 2 -d -1 -p XFXVanets -e 48 -c 2 -a 0 -i 0 -k RTR 
- -t 19.000000000 -s 2 -d -1 -p XFXVanets -e 48 -c 2 -a 0 -i 0 -k RTR
h -t 19.000000000 -s 2 -d -1 -p XFXVanets -e 48 -c 2 -a 0 -i 0 -k RTR
+ -t 20.000000000 -s 0 -d -1 -p cbr -e 1000 -c 2 -a 0 -i 20 -k AGT 
- -t 20.000000000 -s 0 -d -1 -p cbr -e 1000 -c 2 -a 0 -i 20 -k AGT
h -t 20.000000000 -s 0 -d -1 -p cbr -e 1000 -c 2 -a 0 -i 20 -k AGT
+ -t 20.000000000 -s 0 -d -1 -p XFXVanets -e 48 -c 2 -a 0 -i 0 -k RTR 
- -t 20.000000000 -s 0 -d -1 -p XFXVanets -e 48 -c 2 -a 0 -i 0 -k RTR
h -t 20.000000000 -s 0 -d -1 -p XFXVanets -e 48 -c 2 -a 0 -i 0 -k RTR
+ -t 20.000000000 -s 1 -d -1 -p XFXVanets -e 48 -c 2 -a 0 -i 0 -k RTR 
- -t 20.000000000 -s 1 -d -1 -p XFXVanets -e 48 -c 2 -a 0 -i 0 -k RTR
h -t 20.000000000 -s 1 -d -1 -p XFXVanets -e 48 -c 2 -a 0 -i 0 -k RTR
+ -t 20.000000000 -s 2 -d -1 -p XFXVanets -e 48 -c 2 -a 0 -i 0 -k RTR 
- -t 20.000000000 -s 2 -d -1 -p XFXVanets -e 48 -c 2 -a 0 -i 0 -k RTR
h -t 20.000000000 -s 2 -d -1 -p XFXVanets -e 48 -c 2 -a 0 -i 0 -k RTR
+ -t 21.000000000 -s 0 -d -1 -p cbr -e 1000 -c 2 -a 0 -i 21 -k AGT 
- -t 21.000000000 -s 0 -d -1 -p cbr -e 1000 -c 2 -a 0 -i 21 -k AGT
h -t 21.000000000 -s 0 -d -1 -p cbr -e 1000 -c 2 -a 0 -i 21 -k AGT
+ -t 21.000000000 -s 0 -d -1 -p XFXVanets -e 48 -c 2 -a 0 -i 0 -k RTR 
- -t 21.000000000 -s 0 -d -1 -p XFXVanets -e 48 -c 2 -a 0 -i 0 -k RTR
h -t 21.000000000 -s 0 -d -1 -p XFXVanets -e 48 -c 2 -a 0 -i 0 -k RTR
+ -t 21.000000000 -s 1 -d -1 -p XFXVanets -e 48 -c 2 -a 0 -i 0 -k RTR 
- -t 21.000000000 -s 1 -d -1 -p XFXVanets -e 48 -c 2 -a 0 -i 0 -k RTR
h -t 21.000000000 -s 1 -d -1 -p XFXVanets -e 48 -c 2 -a 0 -i 0 -k RTR
+ -t 21.000000000 -s 2 -d -1 -p XFXVanets -e 48 -c 2 -a 0 -i 0 -k RTR 
- -t 21.000000000 -s 2 -d -1 -p XFXVanets -e 48 -c 2 -a 0 -i 0 -k RTR
h -t 21.000000000 -s 2 -d -1 -p XFXVanets -e 48 -c 2 -a 0 -i 0 -k RTR
+ -t 22.000000000 -s 0 -d -1 -p cbr -e 1000 -c 2 -a 0 -i 22 -k AGT 
- -t 22.000000000 -s 0 -d -1 -p cbr -e 1000 -c 2 -a 0 -i 22 -k AGT
h -t 22.000000000 -s 0 -d -1 -p cbr -e 1000 -c 2 -a 0 -i 22 -k AGT
+ -t 22.000000000 -s 0 -d -1 -p XFXVanets -e 48 -c 2 -a 0 -i 0 -k RTR 
- -t 22.000000000 -s 0 -d -1 -p XFXVanets -e 48 -c 2 -a 0 -i 0 -k RTR
h -t 22.000000000 -s 0 -d -1 -p XFXVanets -e 48 -c 2 -a 0 -i 0 -k RTR
+ -t 22.000000000 -s 1 -d -1 -p XFXVanets -e 48 -c 2 -a 0 -i 0 -k RTR 
- -t 22.000000000 -s 1 -d -1 -p XFXVanets -e 48 -c 2 -a 0 -i 0 -k RTR
h -t 22.000000000 -s 1 -d -1 -p XFXVanets -e 48 -c 2 -a 0 -i 0 -k RTR
+ -t 22.000000000 -s 2 -d -1 -p XFXVanets -e 48 -c 2 -a 0 -i 0 -k RTR 
- -t 22.000000000 -s 2 -d -1 -p XFXVanets -e 48 -c 2 -a 0 -i 0 -k RTR
h -t 22.000000000 -s 2 -d -1 -p XFXVanets -e 48 -c 2 -a 0 -i 0 -k RTR
+ -t 23.000000000 -s 0 -d -1 -p cbr -e 1000 -c 2 -a 0 -i 23 -k AGT 
- -t 23.000000000 -s 0 -d -1 -p cbr -e 1000 -c 2 -a 0 -i 23 -k AGT
h -t 23.000000000 -s 0 -d -1 -p cbr -e 1000 -c 2 -a 0 -i 23 -k AGT
+ -t 23.000000000 -s 0 -d -1 -p XFXVanets -e 48 -c 2 -a 0 -i 0 -k RTR 
- -t 23.000000000 -s 0 -d -1 -p XFXVanets -e 48 -c 2 -a 0 -i 0 -k RTR
h -t 23.000000000 -s 0 -d -1 -p XFXVanets -e 48 -c 2 -a 0 -i 0 -k RTR
+ -t 23.000000000 -s 1 -d -1 -p XFXVanets -e 48 -c 2 -a 0 -i 0 -k RTR 
- -t 23.000000000 -s 1 -d -1 -p XFXVanets -e 48 -c 2 -a 0 -i 0 -k RTR
h -t 23.000000000 -s 1 -d -1 -p XFXVanets -e 48 -c 2 -a 0 -i 0 -k RTR
+ -t 23.000000000 -s 2 -d -1 -p XFXVanets -e 48 -c 2 -a 0 -i 0 -k RTR 
- -t 23.000000000 -s 2 -d -1 -p XFXVanets -e 48 -c 2 -a 0 -i 0 -k RTR
h -t 23.000000000 -s 2 -d -1 -p XFXVanets -e 48 -c 2 -a 0 -i 0 -k RTR
+ -t 24.000000000 -s 0 -d -1 -p cbr -e 1000 -c 2 -a 0 -i 24 -k AGT 
- -t 24.000000000 -s 0 -d -1 -p cbr -e 1000 -c 2 -a 0 -i 24 -k AGT
h -t 24.000000000 -s 0 -d -1 -p cbr -e 1000 -c 2 -a 0 -i 24 -k AGT
+ -t 24.000000000 -s 0 -d -1 -p XFXVanets -e 48 -c 2 -a 0 -i 0 -k RTR 
- -t 24.000000000 -s 0 -d -1 -p XFXVanets -e 48 -c 2 -a 0 -i 0 -k RTR
h -t 24.000000000 -s 0 -d -1 -p XFXVanets -e 48 -c 2 -a 0 -i 0 -k RTR
+ -t 24.000000000 -s 1 -d -1 -p XFXVanets -e 48 -c 2 -a 0 -i 0 -k RTR 
- -t 24.000000000 -s 1 -d -1 -p XFXVanets -e 48 -c 2 -a 0 -i 0 -k RTR
h -t 24.000000000 -s 1 -d -1 -p XFXVanets -e 48 -c 2 -a 0 -i 0 -k RTR
+ -t 24.000000000 -s 2 -d -1 -p XFXVanets -e 48 -c 2 -a 0 -i 0 -k RTR 
- -t 24.000000000 -s 2 -d -1 -p XFXVanets -e 48 -c 2 -a 0 -i 0 -k RTR
h -t 24.000000000 -s 2 -d -1 -p XFXVanets -e 48 -c 2 -a 0 -i 0 -k RTR
+ -t 25.000000000 -s 0 -d -1 -p cbr -e 1000 -c 2 -a 0 -i 25 -k AGT 
- -t 25.000000000 -s 0 -d -1 -p cbr -e 1000 -c 2 -a 0 -i 25 -k AGT
h -t 25.000000000 -s 0 -d -1 -p cbr -e 1000 -c 2 -a 0 -i 25 -k AGT
+ -t 25.000000000 -s 0 -d -1 -p XFXVanets -e 48 -c 2 -a 0 -i 0 -k RTR 
- -t 25.000000000 -s 0 -d -1 -p XFXVanets -e 48 -c 2 -a 0 -i 0 -k RTR
h -t 25.000000000 -s 0 -d -1 -p XFXVanets -e 48 -c 2 -a 0 -i 0 -k RTR
+ -t 25.000000000 -s 1 -d -1 -p XFXVanets -e 48 -c 2 -a 0 -i 0 -k RTR 
- -t 25.000000000 -s 1 -d -1 -p XFXVanets -e 48 -c 2 -a 0 -i 0 -k RTR
h -t 25.000000000 -s 1 -d -1 -p XFXVanets -e 48 -c 2 -a 0 -i 0 -k RTR
+ -t 25.000000000 -s 2 -d -1 -p XFXVanets -e 48 -c 2 -a 0 -i 0 -k RTR 
- -t 25.000000000 -s 2 -d -1 -p XFXVanets -e 48 -c 2 -a 0 -i 0 -k RTR
h -t 25.000000000 -s 2 -d -1 -p XFXVanets -e 48 -c 2 -a 0 -i 0 -k RTR
+ -t 26.000000000 -s 0 -d -1 -p cbr -e 1000 -c 2 -a 0 -i 26 -k AGT 
- -t 26.000000000 -s 0 -d -1 -p cbr -e 1000 -c 2 -a 0 -i 26 -k AGT
h -t 26.000000000 -s 0 -d -1 -p cbr -e 1000 -c 2 -a 0 -i 26 -k AGT
+ -t 26.000000000 -s 0 -d -1 -p XFXVanets -e 48 -c 2 -a 0 -i 0 -k RTR 
- -t 26.000000000 -s 0 -d -1 -p XFXVanets -e 48 -c 2 -a 0 -i 0 -k RTR
h -t 26.000000000 -s 0 -d -1 -p XFXVanets -e 48 -c 2 -a 0 -i 0 -k RTR
+ -t 26.000000000 -s 1 -d -1 -p XFXVanets -e 48 -c 2 -a 0 -i 0 -k RTR 
- -t 26.000000000 -s 1 -d -1 -p XFXVanets -e 48 -c 2 -a 0 -i 0 -k RTR
h -t 26.000000000 -s 1 -d -1 -p XFXVanets -e 48 -c 2 -a 0 -i 0 -k RTR
+ -t 26.000000000 -s 2 -d -1 -p XFXVanets -e 48 -c 2 -a 0 -i 0 -k RTR 
- -t 26.000000000 -s 2 -d -1 -p XFXVanets -e 48 -c 2 -a 0 -i 0 -k RTR
h -t 26.000000000 -s 2 -d -1 -p XFXVanets -e 48 -c 2 -a 0 -i 0 -k RTR
+ -t 27.000000000 -s 0 -d -1 -p cbr -e 1000 -c 2 -a 0 -i 27 -k AGT 
- -t 27.000000000 -s 0 -d -1 -p cbr -e 1000 -c 2 -a 0 -i 27 -k AGT
h -t 27.000000000 -s 0 -d -1 -p cbr -e 1000 -c 2 -a 0 -i 27 -k AGT
+ -t 27.000000000 -s 0 -d -1 -p XFXVanets -e 48 -c 2 -a 0 -i 0 -k RTR 
- -t 27.000000000 -s 0 -d -1 -p XFXVanets -e 48 -c 2 -a 0 -i 0 -k RTR
h -t 27.000000000 -s 0 -d -1 -p XFXVanets -e 48 -c 2 -a 0 -i 0 -k RTR
+ -t 27.000000000 -s 1 -d -1 -p XFXVanets -e 48 -c 2 -a 0 -i 0 -k RTR 
- -t 27.000000000 -s 1 -d -1 -p XFXVanets -e 48 -c 2 -a 0 -i 0 -k RTR
h -t 27.000000000 -s 1 -d -1 -p XFXVanets -e 48 -c 2 -a 0 -i 0 -k RTR
+ -t 27.000000000 -s 2 -d -1 -p XFXVanets -e 48 -c 2 -a 0 -i 0 -k RTR 
- -t 27.000000000 -s 2 -d -1 -p XFXVanets -e 48 -c 2 -a 0 -i 0 -k RTR
h -t 27.000000000 -s 2 -d -1 -p XFXVanets -e 48 -c 2 -a 0 -i 0 -k RTR
+ -t 28.000000000 -s 0 -d -1 -p cbr -e 1000 -c 2 -a 0 -i 28 -k AGT 
- -t 28.000000000 -s 0 -d -1 -p cbr -e 1000 -c 2 -a 0 -i 28 -k AGT
h -t 28.000000000 -s 0 -d -1 -p cbr -e 1000 -c 2 -a 0 -i 28 -k AGT
+ -t 28.000000000 -s 0 -d -1 -p XFXVanets -e 48 -c 2 -a 0 -i 0 -k RTR 
- -t 28.000000000 -s 0 -d -1 -p XFXVanets -e 48 -c 2 -a 0 -i 0 -k RTR
h -t 28.000000000 -s 0 -d -1 -p XFXVanets -e 48 -c 2 -a 0 -i 0 -k RTR
+ -t 28.000000000 -s 1 -d -1 -p XFXVanets -e 48 -c 2 -a 0 -i 0 -k RTR 
- -t 28.000000000 -s 1 -d -1 -p XFXVanets -e 48 -c 2 -a 0 -i 0 -k RTR
h -t 28.000000000 -s 1 -d -1 -p XFXVanets -e 48 -c 2 -a 0 -i 0 -k RTR
+ -t 28.000000000 -s 2 -d -1 -p XFXVanets -e 48 -c 2 -a 0 -i 0 -k RTR 
- -t 28.000000000 -s 2 -d -1 -p XFXVanets -e 48 -c 2 -a 0 -i 0 -k RTR
h -t 28.000000000 -s 2 -d -1 -p XFXVanets -e 48 -c 2 -a 0 -i 0 -k RTR
+ -t 29.000000000 -s 0 -d -1 -p cbr -e 1000 -c 2 -a 0 -i 29 -k AGT 
- -t 29.000000000 -s 0 -d -1 -p cbr -e 1000 -c 2 -a 0 -i 29 -k AGT
h -t 29.000000000 -s 0 -d -1 -p cbr -e 1000 -c 2 -a 0 -i 29 -k AGT
+ -t 29.000000000 -s 0 -d -1 -p XFXVanets -e 48 -c 2 -a 0 -i 0 -k RTR 
- -t 29.000000000 -s 0 -d -1 -p XFXVanets -e 48 -c 2 -a 0 -i 0 -k RTR
h -t 29.000000000 -s 0 -d -1 -p XFXVanets -e 48 -c 2 -a 0 -i 0 -k RTR
+ -t 29.000000000 -s 1 -d -1 -p XFXVanets -e 48 -c 2 -a 0 -i 0 -k RTR 
- -t 29.000000000 -s 1 -d -1 -p XFXVanets -e 48 -c 2 -a 0 -i 0 -k RTR
h -t 29.000000000 -s 1 -d -1 -p XFXVanets -e 48 -c 2 -a 0 -i 0 -k RTR
+ -t 29.000000000 -s 2 -d -1 -p XFXVanets -e 48 -c 2 -a 0 -i 0 -k RTR 
- -t 29.000000000 -s 2 -d -1 -p XFXVanets -e 48 -c 2 -a 0 -i 0 -k RTR
h -t 29.000000000 -s 2 -d -1 -p XFXVanets -e 48 -c 2 -a 0 -i 0 -k RTR
+ -t 30.000000000 -s 0 -d -1 -p cbr -e 1000 -c 2 -a 0 -i 30 -k AGT 
- -t 30.000000000 -s 0 -d -1 -p cbr -e 1000 -c 2 -a 0 -i 30 -k AGT
h -t 30.000000000 -s 0 -d -1 -p cbr -e 1000 -c 2 -a 0 -i 30 -k AGT
+ -t 30.000000000 -s 0 -d -1 -p XFXVanets -e 48 -c 2 -a 0 -i 0 -k RTR 
- -t 30.000000000 -s 0 -d -1 -p XFXVanets -e 48 -c 2 -a 0 -i 0 -k RTR
h -t 30.000000000 -s 0 -d -1 -p XFXVanets -e 48 -c 2 -a 0 -i 0 -k RTR
+ -t 30.000000000 -s 1 -d -1 -p XFXVanets -e 48 -c 2 -a 0 -i 0 -k RTR 
- -t 30.000000000 -s 1 -d -1 -p XFXVanets -e 48 -c 2 -a 0 -i 0 -k RTR
h -t 30.000000000 -s 1 -d -1 -p XFXVanets -e 48 -c 2 -a 0 -i 0 -k RTR
+ -t 30.000000000 -s 2 -d -1 -p XFXVanets -e 48 -c 2 -a 0 -i 0 -k RTR 
- -t 30.000000000 -s 2 -d -1 -p XFXVanets -e 48 -c 2 -a 0 -i 0 -k RTR
h -t 30.000000000 -s 2 -d -1 -p XFXVanets -e 48 -c 2 -a 0 -i 0 -k RTR
+ -t 31.000000000 -s 0 -d -1 -p cbr -e 1000 -c 2 -a 0 -i 31 -k AGT 
- -t 31.000000000 -s 0 -d -1 -p cbr -e 1000 -c 2 -a 0 -i 31 -k AGT
h -t 31.000000000 -s 0 -d -1 -p cbr -e 1000 -c 2 -a 0 -i 31 -k AGT
+ -t 31.000000000 -s 0 -d -1 -p XFXVanets -e 48 -c 2 -a 0 -i 0 -k RTR 
- -t 31.000000000 -s 0 -d -1 -p XFXVanets -e 48 -c 2 -a 0 -i 0 -k RTR
h -t 31.000000000 -s 0 -d -1 -p XFXVanets -e 48 -c 2 -a 0 -i 0 -k RTR
+ -t 31.000000000 -s 1 -d -1 -p XFXVanets -e 48 -c 2 -a 0 -i 0 -k RTR 
- -t 31.000000000 -s 1 -d -1 -p XFXVanets -e 48 -c 2 -a 0 -i 0 -k RTR
h -t 31.000000000 -s 1 -d -1 -p XFXVanets -e 48 -c 2 -a 0 -i 0 -k RTR
+ -t 31.000000000 -s 2 -d -1 -p XFXVanets -e 48 -c 2 -a 0 -i 0 -k RTR 
- -t 31.000000000 -s 2 -d -1 -p XFXVanets -e 48 -c 2 -a 0 -i 0 -k RTR
h -t 31.000000000 -s 2 -d -1 -p XFXVanets -e 48 -c 2 -a 0 -i 0 -k RTR
+ -t 32.000000000 -s 0 -d -1 -p cbr -e 1000 -c 2 -a 0 -i 32 -k AGT 
- -t 32.000000000 -s 0 -d -1 -p cbr -e 1000 -c 2 -a 0 -i 32 -k AGT
h -t 32.000000000 -s 0 -d -1 -p cbr -e 1000 -c 2 -a 0 -i 32 -k AGT
+ -t 32.000000000 -s 0 -d -1 -p XFXVanets -e 48 -c 2 -a 0 -i 0 -k RTR 
- -t 32.000000000 -s 0 -d -1 -p XFXVanets -e 48 -c 2 -a 0 -i 0 -k RTR
h -t 32.000000000 -s 0 -d -1 -p XFXVanets -e 48 -c 2 -a 0 -i 0 -k RTR
+ -t 32.000000000 -s 1 -d -1 -p XFXVanets -e 48 -c 2 -a 0 -i 0 -k RTR 
- -t 32.000000000 -s 1 -d -1 -p XFXVanets -e 48 -c 2 -a 0 -i 0 -k RTR
h -t 32.000000000 -s 1 -d -1 -p XFXVanets -e 48 -c 2 -a 0 -i 0 -k RTR
+ -t 32.000000000 -s 2 -d -1 -p XFXVanets -e 48 -c 2 -a 0 -i 0 -k RTR 
- -t 32.000000000 -s 2 -d -1 -p XFXVanets -e 48 -c 2 -a 0 -i 0 -k RTR
h -t 32.000000000 -s 2 -d -1 -p XFXVanets -e 48 -c 2 -a 0 -i 0 -k RTR
+ -t 33.000000000 -s 0 -d -1 -p cbr -e 1000 -c 2 -a 0 -i 33 -k AGT 
- -t 33.000000000 -s 0 -d -1 -p cbr -e 1000 -c 2 -a 0 -i 33 -k AGT
h -t 33.000000000 -s 0 -d -1 -p cbr -e 1000 -c 2 -a 0 -i 33 -k AGT
+ -t 33.000000000 -s 0 -d -1 -p XFXVanets -e 48 -c 2 -a 0 -i 0 -k RTR 
- -t 33.000000000 -s 0 -d -1 -p XFXVanets -e 48 -c 2 -a 0 -i 0 -k RTR
h -t 33.000000000 -s 0 -d -1 -p XFXVanets -e 48 -c 2 -a 0 -i 0 -k RTR
+ -t 33.000000000 -s 1 -d -1 -p XFXVanets -e 48 -c 2 -a 0 -i 0 -k RTR 
- -t 33.000000000 -s 1 -d -1 -p XFXVanets -e 48 -c 2 -a 0 -i 0 -k RTR
h -t 33.000000000 -s 1 -d -1 -p XFXVanets -e 48 -c 2 -a 0 -i 0 -k RTR
+ -t 33.000000000 -s 2 -d -1 -p XFXVanets -e 48 -c 2 -a 0 -i 0 -k RTR 
- -t 33.000000000 -s 2 -d -1 -p XFXVanets -e 48 -c 2 -a 0 -i 0 -k RTR
h -t 33.000000000 -s 2 -d -1 -p XFXVanets -e 48 -c 2 -a 0 -i 0 -k RTR
+ -t 34.000000000 -s 0 -d -1 -p cbr -e 1000 -c 2 -a 0 -i 34 -k AGT 
- -t 34.000000000 -s 0 -d -1 -p cbr -e 1000 -c 2 -a 0 -i 34 -k AGT
h -t 34.000000000 -s 0 -d -1 -p cbr -e 1000 -c 2 -a 0 -i 34 -k AGT
+ -t 34.000000000 -s 0 -d -1 -p XFXVanets -e 48 -c 2 -a 0 -i 0 -k RTR 
- -t 34.000000000 -s 0 -d -1 -p XFXVanets -e 48 -c 2 -a 0 -i 0 -k RTR
h -t 34.000000000 -s 0 -d -1 -p XFXVanets -e 48 -c 2 -a 0 -i 0 -k RTR
+ -t 34.000000000 -s 1 -d -1 -p XFXVanets -e 48 -c 2 -a 0 -i 0 -k RTR 
- -t 34.000000000 -s 1 -d -1 -p XFXVanets -e 48 -c 2 -a 0 -i 0 -k RTR
h -t 34.000000000 -s 1 -d -1 -p XFXVanets -e 48 -c 2 -a 0 -i 0 -k RTR
+ -t 34.000000000 -s 2 -d -1 -p XFXVanets -e 48 -c 2 -a 0 -i 0 -k RTR 