V -t * -v 1.0a5 -a 0
W -t * -x 500 -y 400
A -t * -n 1 -p 0 -o 0xffffffff -c 31 -a 1
A -t * -h 1 -m 2147483647 -s 0
+ -t 0.000000000 -s 0 -d -1 -p XFXVanets -e 48 -c 2 -a 0 -i 0 -k RTR 
- -t 0.000000000 -s 0 -d -1 -p XFXVanets -e 48 -c 2 -a 0 -i 0 -k RTR
h -t 0.000000000 -s 0 -d -1 -p XFXVanets -e 48 -c 2 -a 0 -i 0 -k RTR
+ -t 0.000000000 -s 1 -d -1 -p XFXVanets -e 48 -c 2 -a 0 -i 0 -k RTR 
- -t 0.000000000 -s 1 -d -1 -p XFXVanets -e 48 -c 2 -a 0 -i 0 -k RTR
h -t 0.000000000 -s 1 -d -1 -p XFXVanets -e 48 -c 2 -a 0 -i 0 -k RTR
+ -t 0.000000000 -s 2 -d -1 -p XFXVanets -e 48 -c 2 -a 0 -i 0 -k RTR 
- -t 0.000000000 -s 2 -d -1 -p XFXVanets -e 48 -c 2 -a 0 -i 0 -k RTR
h -t 0.000000000 -s 2 -d -1 -p XFXVanets -e 48 -c 2 -a 0 -i 0 -k RTR
+ -t 0.000000000 -s 3 -d -1 -p XFXVanets -e 48 -c 2 -a 0 -i 0 -k RTR 
- -t 0.000000000 -s 3 -d -1 -p XFXVanets -e 48 -c 2 -a 0 -i 0 -k RTR
h -t 0.000000000 -s 3 -d -1 -p XFXVanets -e 48 -c 2 -a 0 -i 0 -k RTR
+ -t 0.000000000 -s 4 -d -1 -p XFXVanets -e 48 -c 2 -a 0 -i 0 -k RTR 
- -t 0.000000000 -s 4 -d -1 -p XFXVanets -e 48 -c 2 -a 0 -i 0 -k RTR
h -t 0.000000000 -s 4 -d -1 -p XFXVanets -e 48 -c 2 -a 0 -i 0 -k RTR
+ -t 0.000000000 -s 5 -d -1 -p XFXVanets -e 48 -c 2 -a 0 -i 0 -k RTR 
- -t 0.000000000 -s 5 -d -1 -p XFXVanets -e 48 -c 2 -a 0 -i 0 -k RTR
h -t 0.000000000 -s 5 -d -1 -p XFXVanets -e 48 -c 2 -a 0 -i 0 -k RTR
+ -t 0.000000000 -s 6 -d -1 -p XFXVanets -e 48 -c 2 -a 0 -i 0 -k RTR 
- -t 0.000000000 -s 6 -d -1 -p XFXVanets -e 48 -c 2 -a 0 -i 0 -k RTR
h -t 0.000000000 -s 6 -d -1 -p XFXVanets -e 48 -c 2 -a 0 -i 0 -k RTR
r -t 0.000988000 -s 2 -d -1 -p XFXVanets -e 48 -c 2 -a 0 -i 0 -k RTR
r -t 0.000988000 -s 6 -d -1 -p XFXVanets -e 48 -c 2 -a 0 -i 0 -k RTR
r -t 0.001248000 -s 0 -d -1 -p XFXVanets -e 48 -c 2 -a 0 -i 0 -k RTR
r -t 0.002006000 -s 2 -d -1 -p XFXVanets -e 48 -c 2 -a 0 -i 0 -k RTR
r -t 0.002006000 -s 1 -d -1 -p XFXVanets -e 48 -c 2 -a 0 -i 0 -k RTR
r -t 0.002306000 -s 3 -d -1 -p XFXVanets -e 48 -c 2 -a 0 -i 0 -k RTR
r -t 0.003304000 -s 1 -d -1 -p XFXVanets -e 48 -c 2 -a 0 -i 0 -k RTR
r -t 0.003304000 -s 6 -d -1 -p XFXVanets -e 48 -c 2 -a 0 -i 0 -k RTR
n -t 1.000000 -s 0 -x 250.000000 -y 250.000000 -U 0.000000 -V 0.000000 -T 0.000000
n -t 1.000000 -s 1 -x 5.000000 -y 5.000000 -U 0.000000 -V 0.000000 -T 0.000000
n -t 1.000000 -s 4 -x 150.000000 -y 150.000000 -U 0.000000 -V 0.000000 -T 0.000000
n -t 1.000000 -s 2 -x 5.000000 -y 5.000000 -U 0.000000 -V 0.000000 -T 0.000000
n -t 1.000000 -s 3 -x 250.000000 -y 250.000000 -U 0.000000 -V 0.000000 -T 0.000000
n -t 1.000000 -s 5 -x 180.000000 -y 180.000000 -U 0.000000 -V 0.000000 -T 0.000000
n -t 1.000000 -s 6 -x 5.000000 -y 5.000000 -U 0.000000 -V 0.000000 -T 0.000000
+ -t 1.000000000 -s 2 -d -1 -p cbr -e 1000 -c 2 -a 0 -i 0 -k AGT 
- -t 1.000000000 -s 2 -d -1 -p cbr -e 1000 -c 2 -a 0 -i 0 -k AGT
h -t 1.000000000 -s 2 -d -1 -p cbr -e 1000 -c 2 -a 0 -i 0 -k AGT
+ -t 1.000000000 -s 3 -d -1 -p cbr -e 1000 -c 2 -a 0 -i 1 -k AGT 
- -t 1.000000000 -s 3 -d -1 -p cbr -e 1000 -c 2 -a 0 -i 1 -k AGT
h -t 1.000000000 -s 3 -d -1 -p cbr -e 1000 -c 2 -a 0 -i 1 -k AGT
+ -t 1.000000000 -s 5 -d -1 -p cbr -e 1000 -c 2 -a 0 -i 2 -k AGT 
- -t 1.000000000 -s 5 -d -1 -p cbr -e 1000 -c 2 -a 0 -i 2 -k AGT
h -t 1.000000000 -s 5 -d -1 -p cbr -e 1000 -c 2 -a 0 -i 2 -k AGT
+ -t 1.000000000 -s 0 -d -1 -p XFXVanets -e 48 -c 2 -a 0 -i 0 -k RTR 
- -t 1.000000000 -s 0 -d -1 -p XFXVanets -e 48 -c 2 -a 0 -i 0 -k RTR
h -t 1.000000000 -s 0 -d -1 -p XFXVanets -e 48 -c 2 -a 0 -i 0 -k RTR
+ -t 1.000000000 -s 1 -d -1 -p XFXVanets -e 48 -c 2 -a 0 -i 0 -k RTR 
- -t 1.000000000 -s 1 -d -1 -p XFXVanets -e 48 -c 2 -a 0 -i 0 -k RTR
h -t 1.000000000 -s 1 -d -1 -p XFXVanets -e 48 -c 2 -a 0 -i 0 -k RTR
+ -t 1.000000000 -s 2 -d -1 -p XFXVanets -e 48 -c 2 -a 0 -i 0 -k RTR 
- -t 1.000000000 -s 2 -d -1 -p XFXVanets -e 48 -c 2 -a 0 -i 0 -k RTR
h -t 1.000000000 -s 2 -d -1 -p XFXVanets -e 48 -c 2 -a 0 -i 0 -k RTR
+ -t 1.000000000 -s 3 -d -1 -p XFXVanets -e 48 -c 2 -a 0 -i 0 -k RTR 
- -t 1.000000000 -s 3 -d -1 -p XFXVanets -e 48 -c 2 -a 0 -i 0 -k RTR
h -t 1.000000000 -s 3 -d -1 -p XFXVanets -e 48 -c 2 -a 0 -i 0 -k RTR
+ -t 1.000000000 -s 4 -d -1 -p XFXVanets -e 48 -c 2 -a 0 -i 0 -k RTR 
- -t 1.000000000 -s 4 -d -1 -p XFXVanets -e 48 -c 2 -a 0 -i 0 -k RTR
h -t 1.000000000 -s 4 -d -1 -p XFXVanets -e 48 -c 2 -a 0 -i 0 -k RTR
+ -t 1.000000000 -s 5 -d -1 -p XFXVanets -e 48 -c 2 -a 0 -i 0 -k RTR 
- -t 1.000000000 -s 5 -d -1 -p XFXVanets -e 48 -c 2 -a 0 -i 0 -k RTR
h -t 1.000000000 -s 5 -d -1 -p XFXVanets -e 48 -c 2 -a 0 -i 0 -k RTR
+ -t 1.000000000 -s 6 -d -1 -p XFXVanets -e 48 -c 2 -a 0 -i 0 -k RTR 
- -t 1.000000000 -s 6 -d -1 -p XFXVanets -e 48 -c 2 -a 0 -i 0 -k RTR
h -t 1.000000000 -s 6 -d -1 -p XFXVanets -e 48 -c 2 -a 0 -i 0 -k RTR
r -t 1.001188000 -s 1 -d -1 -p XFXVanets -e 48 -c 2 -a 0 -i 0 -k RTR
r -t 1.001188000 -s 6 -d -1 -p XFXVanets -e 48 -c 2 -a 0 -i 0 -k RTR
r -t 1.002166000 -s 2 -d -1 -p XFXVanets -e 48 -c 2 -a 0 -i 0 -k RTR
r -t 1.002166000 -s 1 -d -1 -p XFXVanets -e 48 -c 2 -a 0 -i 0 -k RTR
r -t 1.003104000 -s 2 -d -1 -p XFXVanets -e 48 -c 2 -a 0 -i 0 -k RTR
r -t 1.003104000 -s 6 -d -1 -p XFXVanets -e 48 -c 2 -a 0 -i 0 -k RTR
+ -t 2.000000000 -s 2 -d -1 -p cbr -e 1000 -c 2 -a 0 -i 3 -k AGT 
- -t 2.000000000 -s 2 -d -1 -p cbr -e 1000 -c 2 -a 0 -i 3 -k AGT
h -t 2.000000000 -s 2 -d -1 -p cbr -e 1000 -c 2 -a 0 -i 3 -k AGT
+ -t 2.000000000 -s 3 -d -1 -p cbr -e 1000 -c 2 -a 0 -i 4 -k AGT 
- -t 2.000000000 -s 3 -d -1 -p cbr -e 1000 -c 2 -a 0 -i 4 -k AGT
h -t 2.000000000 -s 3 -d -1 -p cbr -e 1000 -c 2 -a 0 -i 4 -k AGT
+ -t 2.000000000 -s 5 -d -1 -p cbr -e 1000 -c 2 -a 0 -i 5 -k AGT 
- -t 2.000000000 -s 5 -d -1 -p cbr -e 1000 -c 2 -a 0 -i 5 -k AGT
h -t 2.000000000 -s 5 -d -1 -p cbr -e 1000 -c 2 -a 0 -i 5 -k AGT
+ -t 2.000000000 -s 0 -d -1 -p XFXVanets -e 48 -c 2 -a 0 -i 0 -k RTR 
- -t 2.000000000 -s 0 -d -1 -p XFXVanets -e 48 -c 2 -a 0 -i 0 -k RTR
h -t 2.000000000 -s 0 -d -1 -p XFXVanets -e 48 -c 2 -a 0 -i 0 -k RTR
+ -t 2.000000000 -s 1 -d -1 -p XFXVanets -e 48 -c 2 -a 0 -i 0 -k RTR 
- -t 2.000000000 -s 1 -d -1 -p XFXVanets -e 48 -c 2 -a 0 -i 0 -k RTR
h -t 2.000000000 -s 1 -d -1 -p XFXVanets -e 48 -c 2 -a 0 -i 0 -k RTR
+ -t 2.000000000 -s 2 -d -1 -p XFXVanets -e 48 -c 2 -a 0 -i 0 -k RTR 
- -t 2.000000000 -s 2 -d -1 -p XFXVanets -e 48 -c 2 -a 0 -i 0 -k RTR
h -t 2.000000000 -s 2 -d -1 -p XFXVanets -e 48 -c 2 -a 0 -i 0 -k RTR
+ -t 2.000000000 -s 3 -d -1 -p XFXVanets -e 48 -c 2 -a 0 -i 0 -k RTR 
- -t 2.000000000 -s 3 -d -1 -p XFXVanets -e 48 -c 2 -a 0 -i 0 -k RTR
h -t 2.000000000 -s 3 -d -1 -p XFXVanets -e 48 -c 2 -a 0 -i 0 -k RTR
+ -t 2.000000000 -s 4 -d -1 -p XFXVanets -e 48 -c 2 -a 0 -i 0 -k RTR 
- -t 2.000000000 -s 4 -d -1 -p XFXVanets -e 48 -c 2 -a 0 -i 0 -k RTR
h -t 2.000000000 -s 4 -d -1 -p XFXVanets -e 48 -c 2 -a 0 -i 0 -k RTR
+ -t 2.000000000 -s 5 -d -1 -p XFXVanets -e 48 -c 2 -a 0 -i 0 -k RTR 
- -t 2.000000000 -s 5 -d -1 -p XFXVanets -e 48 -c 2 -a 0 -i 0 -k RTR
h -t 2.000000000 -s 5 -d -1 -p XFXVanets -e 48 -c 2 -a 0 -i 0 -k RTR
+ -t 2.000000000 -s 6 -d -1 -p XFXVanets -e 48 -c 2 -a 0 -i 0 -k RTR 
- -t 2.000000000 -s 6 -d -1 -p XFXVanets -e 48 -c 2 -a 0 -i 0 -k RTR
h -t 2.000000000 -s 6 -d -1 -p XFXVanets -e 48 -c 2 -a 0 -i 0 -k RTR
r -t 2.000988000 -s 0 -d -1 -p XFXVanets -e 48 -c 2 -a 0 -i 0 -k RTR
r -t 2.001088000 -s 2 -d -1 -p XFXVanets -e 48 -c 2 -a 0 -i 0 -k RTR
r -t 2.001088000 -s 1 -d -1 -p XFXVanets -e 48 -c 2 -a 0 -i 0 -k RTR
r -t 2.002206000 -s 1 -d -1 -p XFXVanets -e 48 -c 2 -a 0 -i 0 -k RTR
r -t 2.002206000 -s 6 -d -1 -p XFXVanets -e 48 -c 2 -a 0 -i 0 -k RTR
r -t 2.002246000 -s 3 -d -1 -p XFXVanets -e 48 -c 2 -a 0 -i 0 -k RTR
r -t 2.003284000 -s 2 -d -1 -p XFXVanets -e 48 -c 2 -a 0 -i 0 -k RTR
r -t 2.003284000 -s 6 -d -1 -p XFXVanets -e 48 -c 2 -a 0 -i 0 -k RTR
+ -t 3.000000000 -s 2 -d -1 -p cbr -e 1000 -c 2 -a 0 -i 6 -k AGT 
- -t 3.000000000 -s 2 -d -1 -p cbr -e 1000 -c 2 -a 0 -i 6 -k AGT
h -t 3.000000000 -s 2 -d -1 -p cbr -e 1000 -c 2 -a 0 -i 6 -k AGT
+ -t 3.000000000 -s 3 -d -1 -p cbr -e 1000 -c 2 -a 0 -i 7 -k AGT 
- -t 3.000000000 -s 3 -d -1 -p cbr -e 1000 -c 2 -a 0 -i 7 -k AGT
h -t 3.000000000 -s 3 -d -1 -p cbr -e 1000 -c 2 -a 0 -i 7 -k AGT
+ -t 3.000000000 -s 5 -d -1 -p cbr -e 1000 -c 2 -a 0 -i 8 -k AGT 
- -t 3.000000000 -s 5 -d -1 -p cbr -e 1000 -c 2 -a 0 -i 8 -k AGT
h -t 3.000000000 -s 5 -d -1 -p cbr -e 1000 -c 2 -a 0 -i 8 -k AGT
+ -t 3.000000000 -s 0 -d -1 -p XFXVanets -e 48 -c 2 -a 0 -i 0 -k RTR 
- -t 3.000000000 -s 0 -d -1 -p XFXVanets -e 48 -c 2 -a 0 -i 0 -k RTR
h -t 3.000000000 -s 0 -d -1 -p XFXVanets -e 48 -c 2 -a 0 -i 0 -k RTR
+ -t 3.000000000 -s 1 -d -1 -p XFXVanets -e 48 -c 2 -a 0 -i 0 -k RTR 
- -t 3.000000000 -s 1 -d -1 -p XFXVanets -e 48 -c 2 -a 0 -i 0 -k RTR
h -t 3.000000000 -s 1 -d -1 -p XFXVanets -e 48 -c 2 -a 0 -i 0 -k RTR
+ -t 3.000000000 -s 2 -d -1 -p XFXVanets -e 48 -c 2 -a 0 -i 0 -k RTR 
- -t 3.000000000 -s 2 -d -1 -p XFXVanets -e 48 -c 2 -a 0 -i 0 -k RTR
h -t 3.000000000 -s 2 -d -1 -p XFXVanets -e 48 -c 2 -a 0 -i 0 -k RTR
+ -t 3.000000000 -s 3 -d -1 -p XFXVanets -e 48 -c 2 -a 0 -i 0 -k RTR 
- -t 3.000000000 -s 3 -d -1 -p XFXVanets -e 48 -c 2 -a 0 -i 0 -k RTR
h -t 3.000000000 -s 3 -d -1 -p XFXVanets -e 48 -c 2 -a 0 -i 0 -k RTR
+ -t 3.000000000 -s 4 -d -1 -p XFXVanets -e 48 -c 2 -a 0 -i 0 -k RTR 
- -t 3.000000000 -s 4 -d -1 -p XFXVanets -e 48 -c 2 -a 0 -i 0 -k RTR
h -t 3.000000000 -s 4 -d -1 -p XFXVanets -e 48 -c 2 -a 0 -i 0 -k RTR
+ -t 3.000000000 -s 5 -d -1 -p XFXVanets -e 48 -c 2 -a 0 -i 0 -k RTR 
- -t 3.000000000 -s 5 -d -1 -p XFXVanets -e 48 -c 2 -a 0 -i 0 -k RTR
h -t 3.000000000 -s 5 -d -1 -p XFXVanets -e 48 -c 2 -a 0 -i 0 -k RTR
+ -t 3.000000000 -s 6 -d -1 -p XFXVanets -e 48 -c 2 -a 0 -i 0 -k RTR 
- -t 3.000000000 -s 6 -d -1 -p XFXVanets -e 48 -c 2 -a 0 -i 0 -k RTR
h -t 3.000000000 -s 6 -d -1 -p XFXVanets -e 48 -c 2 -a 0 -i 0 -k RTR
r -t 3.001008000 -s 2 -d -1 -p XFXVanets -e 48 -c 2 -a 0 -i 0 -k RTR
r -t 3.001008000 -s 6 -d -1 -p XFXVanets -e 48 -c 2 -a 0 -i 0 -k RTR
r -t 3.001288000 -s 0 -d -1 -p XFXVanets -e 48 -c 2 -a 0 -i 0 -k RTR
r -t 3.001966000 -s 1 -d -1 -p XFXVanets -e 48 -c 2 -a 0 -i 0 -k RTR
r -t 3.001966000 -s 6 -d -1 -p XFXVanets -e 48 -c 2 -a 0 -i 0 -k RTR
r -t 3.002426000 -s 3 -d -1 -p XFXVanets -e 48 -c 2 -a 0 -i 0 -k RTR
r -t 3.002924000 -s 2 -d -1 -p XFXVanets -e 48 -c 2 -a 0 -i 0 -k RTR
r -t 3.002924000 -s 1 -d -1 -p XFXVanets -e 48 -c 2 -a 0 -i 0 -k RTR
+ -t 4.000000000 -s 2 -d -1 -p cbr -e 1000 -c 2 -a 0 -i 9 -k AGT 
- -t 4.000000000 -s 2 -d -1 -p cbr -e 1000 -c 2 -a 0 -i 9 -k AGT
h -t 4.000000000 -s 2 -d -1 -p cbr -e 1000 -c 2 -a 0 -i 9 -k AGT
+ -t 4.000000000 -s 3 -d -1 -p cbr -e 1000 -c 2 -a 0 -i 10 -k AGT 
- -t 4.000000000 -s 3 -d -1 -p cbr -e 1000 -c 2 -a 0 -i 10 -k AGT
h -t 4.000000000 -s 3 -d -1 -p cbr -e 1000 -c 2 -a 0 -i 10 -k AGT
+ -t 4.000000000 -s 5 -d -1 -p cbr -e 1000 -c 2 -a 0 -i 11 -k AGT 
- -t 4.000000000 -s 5 -d -1 -p cbr -e 1000 -c 2 -a 0 -i 11 -k AGT
h -t 4.000000000 -s 5 -d -1 -p cbr -e 1000 -c 2 -a 0 -i 11 -k AGT
+ -t 4.000000000 -s 0 -d -1 -p XFXVanets -e 48 -c 2 -a 0 -i 0 -k RTR 
- -t 4.000000000 -s 0 -d -1 -p XFXVanets -e 48 -c 2 -a 0 -i 0 -k RTR
h -t 4.000000000 -s 0 -d -1 -p XFXVanets -e 48 -c 2 -a 0 -i 0 -k RTR
+ -t 4.000000000 -s 1 -d -1 -p XFXVanets -e 48 -c 2 -a 0 -i 0 -k RTR 
- -t 4.000000000 -s 1 -d -1 -p XFXVanets -e 48 -c 2 -a 0 -i 0 -k RTR
h -t 4.000000000 -s 1 -d -1 -p XFXVanets -e 48 -c 2 -a 0 -i 0 -k RTR
+ -t 4.000000000 -s 2 -d -1 -p XFXVanets -e 48 -c 2 -a 0 -i 0 -k RTR 
- -t 4.000000000 -s 2 -d -1 -p XFXVanets -e 48 -c 2 -a 0 -i 0 -k RTR
h -t 4.000000000 -s 2 -d -1 -p XFXVanets -e 48 -c 2 -a 0 -i 0 -k RTR
+ -t 4.000000000 -s 3 -d -1 -p XFXVanets -e 48 -c 2 -a 0 -i 0 -k RTR 
- -t 4.000000000 -s 3 -d -1 -p XFXVanets -e 48 -c 2 -a 0 -i 0 -k RTR
h -t 4.000000000 -s 3 -d -1 -p XFXVanets -e 48 -c 2 -a 0 -i 0 -k RTR
+ -t 4.000000000 -s 4 -d -1 -p XFXVanets -e 48 -c 2 -a 0 -i 0 -k RTR 
- -t 4.000000000 -s 4 -d -1 -p XFXVanets -e 48 -c 2 -a 0 -i 0 -k RTR
h -t 4.000000000 -s 4 -d -1 -p XFXVanets -e 48 -c 2 -a 0 -i 0 -k RTR
+ -t 4.000000000 -s 5 -d -1 -p XFXVanets -e 48 -c 2 -a 0 -i 0 -k RTR 
- -t 4.000000000 -s 5 -d -1 -p XFXVanets -e 48 -c 2 -a 0 -i 0 -k RTR
h -t 4.000000000 -s 5 -d -1 -p XFXVanets -e 48 -c 2 -a 0 -i 0 -k RTR
+ -t 4.000000000 -s 6 -d -1 -p XFXVanets -e 48 -c 2 -a 0 -i 0 -k RTR 
- -t 4.000000000 -s 6 -d -1 -p XFXVanets -e 48 -c 2 -a 0 -i 0 -k RTR
h -t 4.000000000 -s 6 -d -1 -p XFXVanets -e 48 -c 2 -a 0 -i 0 -k RTR
r -t 4.000948000 -s 1 -d -1 -p XFXVanets -e 48 -c 2 -a 0 -i 0 -k RTR
r -t 4.000948000 -s 6 -d -1 -p XFXVanets -e 48 -c 2 -a 0 -i 0 -k RTR
r -t 4.001028000 -s 3 -d -1 -p XFXVanets -e 48 -c 2 -a 0 -i 0 -k RTR
r -t 4.001866000 -s 2 -d -1 -p XFXVanets -e 48 -c 2 -a 0 -i 0 -k RTR
r -t 4.001866000 -s 1 -d -1 -p XFXVanets -e 48 -c 2 -a 0 -i 0 -k RTR
r -t 4.002086000 -s 0 -d -1 -p XFXVanets -e 48 -c 2 -a 0 -i 0 -k RTR
r -t 4.003044000 -s 2 -d -1 -p XFXVanets -e 48 -c 2 -a 0 -i 0 -k RTR
r -t 4.003044000 -s 6 -d -1 -p XFXVanets -e 48 -c 2 -a 0 -i 0 -k RTR
+ -t 5.000000000 -s 2 -d -1 -p cbr -e 1000 -c 2 -a 0 -i 12 -k AGT 
- -t 5.000000000 -s 2 -d -1 -p cbr -e 1000 -c 2 -a 0 -i 12 -k AGT
h -t 5.000000000 -s 2 -d -1 -p cbr -e 1000 -c 2 -a 0 -i 12 -k AGT
+ -t 5.000000000 -s 3 -d -1 -p cbr -e 1000 -c 2 -a 0 -i 13 -k AGT 
- -t 5.000000000 -s 3 -d -1 -p cbr -e 1000 -c 2 -a 0 -i 13 -k AGT
h -t 5.000000000 -s 3 -d -1 -p cbr -e 1000 -c 2 -a 0 -i 13 -k AGT
+ -t 5.000000000 -s 5 -d -1 -p cbr -e 1000 -c 2 -a 0 -i 14 -k AGT 
- -t 5.000000000 -s 5 -d -1 -p cbr -e 1000 -c 2 -a 0 -i 14 -k AGT
h -t 5.000000000 -s 5 -d -1 -p cbr -e 1000 -c 2 -a 0 -i 14 -k AGT
+ -t 5.000000000 -s 0 -d -1 -p XFXVanets -e 48 -c 2 -a 0 -i 0 -k RTR 
- -t 5.000000000 -s 0 -d -1 -p XFXVanets -e 48 -c 2 -a 0 -i 0 -k RTR
h -t 5.000000000 -s 0 -d -1 -p XFXVanets -e 48 -c 2 -a 0 -i 0 -k RTR
+ -t 5.000000000 -s 1 -d -1 -p XFXVanets -e 48 -c 2 -a 0 -i 0 -k RTR 
- -t 5.000000000 -s 1 -d -1 -p XFXVanets -e 48 -c 2 -a 0 -i 0 -k RTR
h -t 5.000000000 -s 1 -d -1 -p XFXVanets -e 48 -c 2 -a 0 -i 0 -k RTR
+ -t 5.000000000 -s 2 -d -1 -p XFXVanets -e 48 -c 2 -a 0 -i 0 -k RTR 
- -t 5.000000000 -s 2 -d -1 -p XFXVanets -e 48 -c 2 -a 0 -i 0 -k RTR
h -t 5.000000000 -s 2 -d -1 -p XFXVanets -e 48 -c 2 -a 0 -i 0 -k RTR
+ -t 5.000000000 -s 3 -d -1 -p XFXVanets -e 48 -c 2 -a 0 -i 0 -k RTR 
- -t 5.000000000 -s 3 -d -1 -p XFXVanets -e 48 -c 2 -a 0 -i 0 -k RTR
h -t 5.000000000 -s 3 -d -1 -p XFXVanets -e 48 -c 2 -a 0 -i 0 -k RTR
+ -t 5.000000000 -s 4 -d -1 -p XFXVanets -e 48 -c 2 -a 0 -i 0 -k RTR 
- -t 5.000000000 -s 4 -d -1 -p XFXVanets -e 48 -c 2 -a 0 -i 0 -k RTR
h -t 5.000000000 -s 4 -d -1 -p XFXVanets -e 48 -c 2 -a 0 -i 0 -k RTR
+ -t 5.000000000 -s 5 -d -1 -p XFXVanets -e 48 -c 2 -a 0 -i 0 -k RTR 
- -t 5.000000000 -s 5 -d -1 -p XFXVanets -e 48 -c 2 -a 0 -i 0 -k RTR
h -t 5.000000000 -s 5 -d -1 -p XFXVanets -e 48 -c 2 -a 0 -i 0 -k RTR
+ -t 5.000000000 -s 6 -d -1 -p XFXVanets -e 48 -c 2 -a 0 -i 0 -k RTR 
- -t 5.000000000 -s 6 -d -1 -p XFXVanets -e 48 -c 2 -a 0 -i 0 -k RTR
h -t 5.000000000 -s 6 -d -1 -p XFXVanets -e 48 -c 2 -a 0 -i 0 -k RTR
r -t 5.001028000 -s 1 -d -1 -p XFXVanets -e 48 -c 2 -a 0 -i 0 -k RTR
r -t 5.001028000 -s 6 -d -1 -p XFXVanets -e 48 -c 2 -a 0 -i 0 -k RTR
r -t 5.001148000 -s 3 -d -1 -p XFXVanets -e 48 -c 2 -a 0 -i 0 -k RTR
r -t 5.001946000 -s 2 -d -1 -p XFXVanets -e 48 -c 2 -a 0 -i 0 -k RTR
r -t 5.001946000 -s 6 -d -1 -p XFXVanets -e 48 -c 2 -a 0 -i 0 -k RTR
r -t 5.002106000 -s 0 -d -1 -p XFXVanets -e 48 -c 2 -a 0 -i 0 -k RTR
r -t 5.003084000 -s 2 -d -1 -p XFXVanets -e 48 -c 2 -a 0 -i 0 -k RTR
r -t 5.003084000 -s 1 -d -1 -p XFXVanets -e 48 -c 2 -a 0 -i 0 -k RTR
n -t 6.000000 -s 2 -x 5.000000 -y 5.000000 -U 7.071068 -V 7.071068 -T 2.828427
n -t 6.000000 -s 3 -x 250.000000 -y 250.000000 -U -7.071068 -V -7.071068 -T 14.142136
n -t 6.000000 -s 5 -x 180.000000 -y 180.000000 -U -7.071068 -V -7.071068 -T 2.828427
n -t 6.000000 -s 6 -x 5.000000 -y 5.000000 -U 7.071068 -V 7.071068 -T 20.506097
+ -t 6.000000000 -s 2 -d -1 -p cbr -e 1000 -c 2 -a 0 -i 15 -k AGT 
- -t 6.000000000 -s 2 -d -1 -p cbr -e 1000 -c 2 -a 0 -i 15 -k AGT
h -t 6.000000000 -s 2 -d -1 -p cbr -e 1000 -c 2 -a 0 -i 15 -k AGT
+ -t 6.000000000 -s 3 -d -1 -p cbr -e 1000 -c 2 -a 0 -i 16 -k AGT 
- -t 6.000000000 -s 3 -d -1 -p cbr -e 1000 -c 2 -a 0 -i 16 -k AGT
h -t 6.000000000 -s 3 -d -1 -p cbr -e 1000 -c 2 -a 0 -i 16 -k AGT
+ -t 6.000000000 -s 5 -d -1 -p cbr -e 1000 -c 2 -a 0 -i 17 -k AGT 
- -t 6.000000000 -s 5 -d -1 -p cbr -e 1000 -c 2 -a 0 -i 17 -k AGT
h -t 6.000000000 -s 5 -d -1 -p cbr -e 1000 -c 2 -a 0 -i 17 -k AGT
+ -t 6.000000000 -s 0 -d -1 -p XFXVanets -e 48 -c 2 -a 0 -i 0 -k RTR 
- -t 6.000000000 -s 0 -d -1 -p XFXVanets -e 48 -c 2 -a 0 -i 0 -k RTR
h -t 6.000000000 -s 0 -d -1 -p XFXVanets -e 48 -c 2 -a 0 -i 0 -k RTR
+ -t 6.000000000 -s 1 -d -1 -p XFXVanets -e 48 -c 2 -a 0 -i 0 -k RTR 
- -t 6.000000000 -s 1 -d -1 -p XFXVanets -e 48 -c 2 -a 0 -i 0 -k RTR
h -t 6.000000000 -s 1 -d -1 -p XFXVanets -e 48 -c 2 -a 0 -i 0 -k RTR
+ -t 6.000000000 -s 2 -d -1 -p XFXVanets -e 48 -c 2 -a 0 -i 0 -k RTR 
- -t 6.000000000 -s 2 -d -1 -p XFXVanets -e 48 -c 2 -a 0 -i 0 -k RTR
h -t 6.000000000 -s 2 -d -1 -p XFXVanets -e 48 -c 2 -a 0 -i 0 -k RTR
+ -t 6.000000000 -s 3 -d -1 -p XFXVanets -e 48 -c 2 -a 0 -i 0 -k RTR 
- -t 6.000000000 -s 3 -d -1 -p XFXVanets -e 48 -c 2 -a 0 -i 0 -k RTR
h -t 6.000000000 -s 3 -d -1 -p XFXVanets -e 48 -c 2 -a 0 -i 0 -k RTR
+ -t 6.000000000 -s 4 -d -1 -p XFXVanets -e 48 -c 2 -a 0 -i 0 -k RTR 
- -t 6.000000000 -s 4 -d -1 -p XFXVanets -e 48 -c 2 -a 0 -i 0 -k RTR
h -t 6.000000000 -s 4 -d -1 -p XFXVanets -e 48 -c 2 -a 0 -i 0 -k RTR
+ -t 6.000000000 -s 5 -d -1 -p XFXVanets -e 48 -c 2 -a 0 -i 0 -k RTR 
- -t 6.000000000 -s 5 -d -1 -p XFXVanets -e 48 -c 2 -a 0 -i 0 -k RTR
h -t 6.000000000 -s 5 -d -1 -p XFXVanets -e 48 -c 2 -a 0 -i 0 -k RTR
+ -t 6.000000000 -s 6 -d -1 -p XFXVanets -e 48 -c 2 -a 0 -i 0 -k RTR 
- -t 6.000000000 -s 6 -d -1 -p XFXVanets -e 48 -c 2 -a 0 -i 0 -k RTR
h -t 6.000000000 -s 6 -d -1 -p XFXVanets -e 48 -c 2 -a 0 -i 0 -k RTR
r -t 6.001248000 -s 0 -d -1 -p XFXVanets -e 48 -c 2 -a 0 -i 0 -k RTR
r -t 6.002386000 -s 3 -d -1 -p XFXVanets -e 48 -c 2 -a 0 -i 0 -k RTR
r -t 6.002790000 -s 2 -d -1 -p XFXVanets -e 48 -c 2 -a 0 -i 0 -k RTR
r -t 6.002790000 -s 1 -d -1 -p XFXVanets -e 48 -c 2 -a 0 -i 0 -k RTR
+ -t 7.000000000 -s 2 -d -1 -p cbr -e 1000 -c 2 -a 0 -i 18 -k AGT 
- -t 7.000000000 -s 2 -d -1 -p cbr -e 1000 -c 2 -a 0 -i 18 -k AGT
h -t 7.000000000 -s 2 -d -1 -p cbr -e 1000 -c 2 -a 0 -i 18 -k AGT
+ -t 7.000000000 -s 3 -d -1 -p cbr -e 1000 -c 2 -a 0 -i 19 -k AGT 
- -t 7.000000000 -s 3 -d -1 -p cbr -e 1000 -c 2 -a 0 -i 19 -k AGT
h -t 7.000000000 -s 3 -d -1 -p cbr -e 1000 -c 2 -a 0 -i 19 -k AGT
+ -t 7.000000000 -s 5 -d -1 -p cbr -e 1000 -c 2 -a 0 -i 20 -k AGT 
- -t 7.000000000 -s 5 -d -1 -p cbr -e 1000 -c 2 -a 0 -i 20 -k AGT
h -t 7.000000000 -s 5 -d -1 -p cbr -e 1000 -c 2 -a 0 -i 20 -k AGT
+ -t 7.000000000 -s 0 -d -1 -p XFXVanets -e 48 -c 2 -a 0 -i 0 -k RTR 
- -t 7.000000000 -s 0 -d -1 -p XFXVanets -e 48 -c 2 -a 0 -i 0 -k RTR
h -t 7.000000000 -s 0 -d -1 -p XFXVanets -e 48 -c 2 -a 0 -i 0 -k RTR
+ -t 7.000000000 -s 1 -d -1 -p XFXVanets -e 48 -c 2 -a 0 -i 0 -k RTR 
- -t 7.000000000 -s 1 -d -1 -p XFXVanets -e 48 -c 2 -a 0 -i 0 -k RTR
h -t 7.000000000 -s 1 -d -1 -p XFXVanets -e 48 -c 2 -a 0 -i 0 -k RTR
+ -t 7.000000000 -s 2 -d -1 -p XFXVanets -e 48 -c 2 -a 0 -i 0 -k RTR 
- -t 7.000000000 -s 2 -d -1 -p XFXVanets -e 48 -c 2 -a 0 -i 0 -k RTR
h -t 7.000000000 -s 2 -d -1 -p XFXVanets -e 48 -c 2 -a 0 -i 0 -k RTR
+ -t 7.000000000 -s 3 -d -1 -p XFXVanets -e 48 -c 2 -a 0 -i 0 -k RTR 
- -t 7.000000000 -s 3 -d -1 -p XFXVanets -e 48 -c 2 -a 0 -i 0 -k RTR
h -t 7.000000000 -s 3 -d -1 -p XFXVanets -e 48 -c 2 -a 0 -i 0 -k RTR
+ -t 7.000000000 -s 4 -d -1 -p XFXVanets -e 48 -c 2 -a 0 -i 0 -k RTR 
- -t 7.000000000 -s 4 -d -1 -p XFXVanets -e 48 -c 2 -a 0 -i 0 -k RTR
h -t 7.000000000 -s 4 -d -1 -p XFXVanets -e 48 -c 2 -a 0 -i 0 -k RTR
+ -t 7.000000000 -s 5 -d -1 -p XFXVanets -e 48 -c 2 -a 0 -i 0 -k RTR 
- -t 7.000000000 -s 5 -d -1 -p XFXVanets -e 48 -c 2 -a 0 -i 0 -k RTR
h -t 7.000000000 -s 5 -d -1 -p XFXVanets -e 48 -c 2 -a 0 -i 0 -k RTR
+ -t 7.000000000 -s 6 -d -1 -p XFXVanets -e 48 -c 2 -a 0 -i 0 -k RTR 
- -t 7.000000000 -s 6 -d -1 -p XFXVanets -e 48 -c 2 -a 0 -i 0 -k RTR
h -t 7.000000000 -s 6 -d -1 -p XFXVanets -e 48 -c 2 -a 0 -i 0 -k RTR
r -t 7.000948033 -s 2 -d -1 -p XFXVanets -e 48 -c 2 -a 0 -i 0 -k RTR
r -t 7.000948033 -s 6 -d -1 -p XFXVanets -e 48 -c 2 -a 0 -i 0 -k RTR
r -t 7.001168033 -s 3 -d -1 -p XFXVanets -e 48 -c 2 -a 0 -i 0 -k RTR
r -t 7.001986033 -s 6 -d -1 -p XFXVanets -e 48 -c 2 -a 0 -i 0 -k RTR
r -t 7.001986067 -s 1 -d -1 -p XFXVanets -e 48 -c 2 -a 0 -i 0 -k RTR
r -t 7.002206067 -s 0 -d -1 -p XFXVanets -e 48 -c 2 -a 0 -i 0 -k RTR
r -t 7.003244033 -s 2 -d -1 -p XFXVanets -e 48 -c 2 -a 0 -i 0 -k RTR
r -t 7.003244067 -s 1 -d -1 -p XFXVanets -e 48 -c 2 -a 0 -i 0 -k RTR
+ -t 8.000000000 -s 2 -d -1 -p cbr -e 1000 -c 2 -a 0 -i 21 -k AGT 
- -t 8.000000000 -s 2 -d -1 -p cbr -e 1000 -c 2 -a 0 -i 21 -k AGT
h -t 8.000000000 -s 2 -d -1 -p cbr -e 1000 -c 2 -a 0 -i 21 -k AGT
+ -t 8.000000000 -s 3 -d -1 -p cbr -e 1000 -c 2 -a 0 -i 22 -k AGT 
- -t 8.000000000 -s 3 -d -1 -p cbr -e 1000 -c 2 -a 0 -i 22 -k AGT
h -t 8.000000000 -s 3 -d -1 -p cbr -e 1000 -c 2 -a 0 -i 22 -k AGT
+ -t 8.000000000 -s 5 -d -1 -p cbr -e 1000 -c 2 -a 0 -i 23 -k AGT 
- -t 8.000000000 -s 5 -d -1 -p cbr -e 1000 -c 2 -a 0 -i 23 -k AGT
h -t 8.000000000 -s 5 -d -1 -p cbr -e 1000 -c 2 -a 0 -i 23 -k AGT
+ -t 8.000000000 -s 0 -d -1 -p XFXVanets -e 48 -c 2 -a 0 -i 0 -k RTR 
- -t 8.000000000 -s 0 -d -1 -p XFXVanets -e 48 -c 2 -a 0 -i 0 -k RTR
h -t 8.000000000 -s 0 -d -1 -p XFXVanets -e 48 -c 2 -a 0 -i 0 -k RTR
+ -t 8.000000000 -s 1 -d -1 -p XFXVanets -e 48 -c 2 -a 0 -i 0 -k RTR 
- -t 8.000000000 -s 1 -d -1 -p XFXVanets -e 48 -c 2 -a 0 -i 0 -k RTR
h -t 8.000000000 -s 1 -d -1 -p XFXVanets -e 48 -c 2 -a 0 -i 0 -k RTR
+ -t 8.000000000 -s 2 -d -1 -p XFXVanets -e 48 -c 2 -a 0 -i 0 -k RTR 
- -t 8.000000000 -s 2 -d -1 -p XFXVanets -e 48 -c 2 -a 0 -i 0 -k RTR
h -t 8.000000000 -s 2 -d -1 -p XFXVanets -e 48 -c 2 -a 0 -i 0 -k RTR
+ -t 8.000000000 -s 3 -d -1 -p XFXVanets -e 48 -c 2 -a 0 -i 0 -k RTR 
- -t 8.000000000 -s 3 -d -1 -p XFXVanets -e 48 -c 2 -a 0 -i 0 -k RTR
h -t 8.000000000 -s 3 -d -1 -p XFXVanets -e 48 -c 2 -a 0 -i 0 -k RTR
+ -t 8.000000000 -s 4 -d -1 -p XFXVanets -e 48 -c 2 -a 0 -i 0 -k RTR 
- -t 8.000000000 -s 4 -d -1 -p XFXVanets -e 48 -c 2 -a 0 -i 0 -k RTR
h -t 8.000000000 -s 4 -d -1 -p XFXVanets -e 48 -c 2 -a 0 -i 0 -k RTR
+ -t 8.000000000 -s 5 -d -1 -p XFXVanets -e 48 -c 2 -a 0 -i 0 -k RTR 
- -t 8.000000000 -s 5 -d -1 -p XFXVanets -e 48 -c 2 -a 0 -i 0 -k RTR
h -t 8.000000000 -s 5 -d -1 -p XFXVanets -e 48 -c 2 -a 0 -i 0 -k RTR
+ -t 8.000000000 -s 6 -d -1 -p XFXVanets -e 48 -c 2 -a 0 -i 0 -k RTR 
- -t 8.000000000 -s 6 -d -1 -p XFXVanets -e 48 -c 2 -a 0 -i 0 -k RTR
h -t 8.000000000 -s 6 -d -1 -p XFXVanets -e 48 -c 2 -a 0 -i 0 -k RTR
r -t 8.001208000 -s 2 -d -1 -p XFXVanets -e 48 -c 2 -a 0 -i 0 -k RTR
r -t 8.002266000 -s 6 -d -1 -p XFXVanets -e 48 -c 2 -a 0 -i 0 -k RTR
+ -t 9.000000000 -s 2 -d -1 -p cbr -e 1000 -c 2 -a 0 -i 24 -k AGT 
- -t 9.000000000 -s 2 -d -1 -p cbr -e 1000 -c 2 -a 0 -i 24 -k AGT
h -t 9.000000000 -s 2 -d -1 -p cbr -e 1000 -c 2 -a 0 -i 24 -k AGT
+ -t 9.000000000 -s 3 -d -1 -p cbr -e 1000 -c 2 -a 0 -i 25 -k AGT 
- -t 9.000000000 -s 3 -d -1 -p cbr -e 1000 -c 2 -a 0 -i 25 -k AGT
h -t 9.000000000 -s 3 -d -1 -p cbr -e 1000 -c 2 -a 0 -i 25 -k AGT
+ -t 9.000000000 -s 5 -d -1 -p cbr -e 1000 -c 2 -a 0 -i 26 -k AGT 
- -t 9.000000000 -s 5 -d -1 -p cbr -e 1000 -c 2 -a 0 -i 26 -k AGT
h -t 9.000000000 -s 5 -d -1 -p cbr -e 1000 -c 2 -a 0 -i 26 -k AGT
+ -t 9.000000000 -s 0 -d -1 -p XFXVanets -e 48 -c 2 -a 0 -i 0 -k RTR 
- -t 9.000000000 -s 0 -d -1 -p XFXVanets -e 48 -c 2 -a 0 -i 0 -k RTR
h -t 9.000000000 -s 0 -d -1 -p XFXVanets -e 48 -c 2 -a 0 -i 0 -k RTR
+ -t 9.000000000 -s 1 -d -1 -p XFXVanets -e 48 -c 2 -a 0 -i 0 -k RTR 
- -t 9.000000000 -s 1 -d -1 -p XFXVanets -e 48 -c 2 -a 0 -i 0 -k RTR
h -t 9.000000000 -s 1 -d -1 -p XFXVanets -e 48 -c 2 -a 0 -i 0 -k RTR
+ -t 9.000000000 -s 2 -d -1 -p XFXVanets -e 48 -c 2 -a 0 -i 0 -k RTR 
- -t 9.000000000 -s 2 -d -1 -p XFXVanets -e 48 -c 2 -a 0 -i 0 -k RTR
h -t 9.000000000 -s 2 -d -1 -p XFXVanets -e 48 -c 2 -a 0 -i 0 -k RTR
+ -t 9.000000000 -s 3 -d -1 -p XFXVanets -e 48 -c 2 -a 0 -i 0 -k RTR 
- -t 9.000000000 -s 3 -d -1 -p XFXVanets -e 48 -c 2 -a 0 -i 0 -k RTR
h -t 9.000000000 -s 3 -d -1 -p XFXVanets -e 48 -c 2 -a 0 -i 0 -k RTR
+ -t 9.000000000 -s 4 -d -1 -p XFXVanets -e 48 -c 2 -a 0 -i 0 -k RTR 
- -t 9.000000000 -s 4 -d -1 -p XFXVanets -e 48 -c 2 -a 0 -i 0 -k RTR
h -t 9.000000000 -s 4 -d -1 -p XFXVanets -e 48 -c 2 -a 0 -i 0 -k RTR
+ -t 9.000000000 -s 5 -d -1 -p XFXVanets -e 48 -c 2 -a 0 -i 0 -k RTR 
- -t 9.000000000 -s 5 -d -1 -p XFXVanets -e 48 -c 2 -a 0 -i 0 -k RTR
h -t 9.000000000 -s 5 -d -1 -p XFXVanets -e 48 -c 2 -a 0 -i 0 -k RTR
+ -t 9.000000000 -s 6 -d -1 -p XFXVanets -e 48 -c 2 -a 0 -i 0 -k RTR 
- -t 9.000000000 -s 6 -d -1 -p XFXVanets -e 48 -c 2 -a 0 -i 0 -k RTR
h -t 9.000000000 -s 6 -d -1 -p XFXVanets -e 48 -c 2 -a 0 -i 0 -k RTR
r -t 9.001048006 -s 2 -d -1 -p XFXVanets -e 48 -c 2 -a 0 -i 0 -k RTR
r -t 9.002026011 -s 6 -d -1 -p XFXVanets -e 48 -c 2 -a 0 -i 0 -k RTR
+ -t 10.000000000 -s 2 -d -1 -p cbr -e 1000 -c 2 -a 0 -i 27 -k AGT 
- -t 10.000000000 -s 2 -d -1 -p cbr -e 1000 -c 2 -a 0 -i 27 -k AGT
h -t 10.000000000 -s 2 -d -1 -p cbr -e 1000 -c 2 -a 0 -i 27 -k AGT
+ -t 10.000000000 -s 3 -d -1 -p cbr -e 1000 -c 2 -a 0 -i 28 -k AGT 
- -t 10.000000000 -s 3 -d -1 -p cbr -e 1000 -c 2 -a 0 -i 28 -k AGT
h -t 10.000000000 -s 3 -d -1 -p cbr -e 1000 -c 2 -a 0 -i 28 -k AGT
+ -t 10.000000000 -s 5 -d -1 -p cbr -e 1000 -c 2 -a 0 -i 29 -k AGT 
- -t 10.000000000 -s 5 -d -1 -p cbr -e 1000 -c 2 -a 0 -i 29 -k AGT
h -t 10.000000000 -s 5 -d -1 -p cbr -e 1000 -c 2 -a 0 -i 29 -k AGT
+ -t 10.000000000 -s 0 -d -1 -p XFXVanets -e 48 -c 2 -a 0 -i 0 -k RTR 
- -t 10.000000000 -s 0 -d -1 -p XFXVanets -e 48 -c 2 -a 0 -i 0 -k RTR
h -t 10.000000000 -s 0 -d -1 -p XFXVanets -e 48 -c 2 -a 0 -i 0 -k RTR
+ -t 10.000000000 -s 1 -d -1 -p XFXVanets -e 48 -c 2 -a 0 -i 0 -k RTR 
- -t 10.000000000 -s 1 -d -1 -p XFXVanets -e 48 -c 2 -a 0 -i 0 -k RTR
h -t 10.000000000 -s 1 -d -1 -p XFXVanets -e 48 -c 2 -a 0 -i 0 -k RTR
+ -t 10.000000000 -s 2 -d -1 -p XFXVanets -e 48 -c 2 -a 0 -i 0 -k RTR 
- -t 10.000000000 -s 2 -d -1 -p XFXVanets -e 48 -c 2 -a 0 -i 0 -k RTR
h -t 10.000000000 -s 2 -d -1 -p XFXVanets -e 48 -c 2 -a 0 -i 0 -k RTR
+ -t 10.000000000 -s 3 -d -1 -p XFXVanets -e 48 -c 2 -a 0 -i 0 -k RTR 
- -t 10.000000000 -s 3 -d -1 -p XFXVanets -e 48 -c 2 -a 0 -i 0 -k RTR
h -t 10.000000000 -s 3 -d -1 -p XFXVanets -e 48 -c 2 -a 0 -i 0 -k RTR
+ -t 10.000000000 -s 4 -d -1 -p XFXVanets -e 48 -c 2 -a 0 -i 0 -k RTR 
- -t 10.000000000 -s 4 -d -1 -p XFXVanets -e 48 -c 2 -a 0 -i 0 -k RTR
h -t 10.000000000 -s 4 -d -1 -p XFXVanets -e 48 -c 2 -a 0 -i 0 -k RTR
+ -t 10.000000000 -s 5 -d -1 -p XFXVanets -e 48 -c 2 -a 0 -i 0 -k RTR 
- -t 10.000000000 -s 5 -d -1 -p XFXVanets -e 48 -c 2 -a 0 -i 0 -k RTR
h -t 10.000000000 -s 5 -d -1 -p XFXVanets -e 48 -c 2 -a 0 -i 0 -k RTR
+ -t 10.000000000 -s 6 -d -1 -p XFXVanets -e 48 -c 2 -a 0 -i 0 -k RTR 
- -t 10.000000000 -s 6 -d -1 -p XFXVanets -e 48 -c 2 -a 0 -i 0 -k RTR
h -t 10.000000000 -s 6 -d -1 -p XFXVanets -e 48 -c 2 -a 0 -i 0 -k RTR
r -t 10.001328039 -s 2 -d -1 -p XFXVanets -e 48 -c 2 -a 0 -i 0 -k RTR
r -t 10.002366078 -s 6 -d -1 -p XFXVanets -e 48 -c 2 -a 0 -i 0 -k RTR
+ -t 11.000000000 -s 2 -d -1 -p cbr -e 1000 -c 2 -a 0 -i 30 -k AGT 
- -t 11.000000000 -s 2 -d -1 -p cbr -e 1000 -c 2 -a 0 -i 30 -k AGT
h -t 11.000000000 -s 2 -d -1 -p cbr -e 1000 -c 2 -a 0 -i 30 -k AGT
+ -t 11.000000000 -s 3 -d -1 -p cbr -e 1000 -c 2 -a 0 -i 31 -k AGT 
- -t 11.000000000 -s 3 -d -1 -p cbr -e 1000 -c 2 -a 0 -i 31 -k AGT
h -t 11.000000000 -s 3 -d -1 -p cbr -e 1000 -c 2 -a 0 -i 31 -k AGT
+ -t 11.000000000 -s 5 -d -1 -p cbr -e 1000 -c 2 -a 0 -i 32 -k AGT 
- -t 11.000000000 -s 5 -d -1 -p cbr -e 1000 -c 2 -a 0 -i 32 -k AGT
h -t 11.000000000 -s 5 -d -1 -p cbr -e 1000 -c 2 -a 0 -i 32 -k AGT
+ -t 11.000000000 -s 0 -d -1 -p XFXVanets -e 48 -c 2 -a 0 -i 0 -k RTR 
- -t 11.000000000 -s 0 -d -1 -p XFXVanets -e 48 -c 2 -a 0 -i 0 -k RTR
h -t 11.000000000 -s 0 -d -1 -p XFXVanets -e 48 -c 2 -a 0 -i 0 -k RTR
+ -t 11.000000000 -s 1 -d -1 -p XFXVanets -e 48 -c 2 -a 0 -i 0 -k RTR 
- -t 11.000000000 -s 1 -d -1 -p XFXVanets -e 48 -c 2 -a 0 -i 0 -k RTR
h -t 11.000000000 -s 1 -d -1 -p XFXVanets -e 48 -c 2 -a 0 -i 0 -k RTR
+ -t 11.000000000 -s 2 -d -1 -p XFXVanets -e 48 -c 2 -a 0 -i 0 -k RTR 
- -t 11.000000000 -s 2 -d -1 -p XFXVanets -e 48 -c 2 -a 0 -i 0 -k RTR
h -t 11.000000000 -s 2 -d -1 -p XFXVanets -e 48 -c 2 -a 0 -i 0 -k RTR
+ -t 11.000000000 -s 3 -d -1 -p XFXVanets -e 48 -c 2 -a 0 -i 0 -k RTR 
- -t 11.000000000 -s 3 -d -1 -p XFXVanets -e 48 -c 2 -a 0 -i 0 -k RTR
h -t 11.000000000 -s 3 -d -1 -p XFXVanets -e 48 -c 2 -a 0 -i 0 -k RTR
+ -t 11.000000000 -s 4 -d -1 -p XFXVanets -e 48 -c 2 -a 0 -i 0 -k RTR 
- -t 11.000000000 -s 4 -d -1 -p XFXVanets -e 48 -c 2 -a 0 -i 0 -k RTR
h -t 11.000000000 -s 4 -d -1 -p XFXVanets -e 48 -c 2 -a 0 -i 0 -k RTR
+ -t 11.000000000 -s 5 -d -1 -p XFXVanets -e 48 -c 2 -a 0 -i 0 -k RTR 
- -t 11.000000000 -s 5 -d -1 -p XFXVanets -e 48 -c 2 -a 0 -i 0 -k RTR
h -t 11.000000000 -s 5 -d -1 -p XFXVanets -e 48 -c 2 -a 0 -i 0 -k RTR
+ -t 11.000000000 -s 6 -d -1 -p XFXVanets -e 48 -c 2 -a 0 -i 0 -k RTR 
- -t 11.000000000 -s 6 -d -1 -p XFXVanets -e 48 -c 2 -a 0 -i 0 -k RTR
h -t 11.000000000 -s 6 -d -1 -p XFXVanets -e 48 -c 2 -a 0 -i 0 -k RTR
n -t 12.000000 -s 2 -x 25.000000 -y 25.000000 -U 7.071068 -V 7.071068 -T 17.677670
n -t 12.000000 -s 3 -x 207.573593 -y 207.573593 -U -7.071068 -V -7.071068 -T 3.899495
n -t 12.000000 -s 5 -x 160.000000 -y 160.000000 -U 7.071068 -V 7.071068 -T 12.727922
n -t 12.000000 -s 6 -x 47.426407 -y 47.426407 -U 7.071068 -V 7.071068 -T 28.648232
+ -t 12.000000000 -s 2 -d -1 -p cbr -e 1000 -c 2 -a 0 -i 33 -k AGT 
- -t 12.000000000 -s 2 -d -1 -p cbr -e 1000 -c 2 -a 0 -i 33 -k AGT