V -t * -v 1.0a5 -a 0
W -t * -x 500 -y 400
A -t * -n 1 -p 0 -o 0xffffffff -c 31 -a 1
A -t * -h 1 -m 2147483647 -s 0
+ -t 0.000000000 -s 0 -d -1 -p cbr -e 1000 -c 2 -a 0 -i 0 -k AGT 
- -t 0.000000000 -s 0 -d -1 -p cbr -e 1000 -c 2 -a 0 -i 0 -k AGT
h -t 0.000000000 -s 0 -d -1 -p cbr -e 1000 -c 2 -a 0 -i 0 -k AGT
+ -t 0.000000000 -s 0 -d -1 -p XFXVanets -e 48 -c 2 -a 0 -i 0 -k RTR 
- -t 0.000000000 -s 0 -d -1 -p XFXVanets -e 48 -c 2 -a 0 -i 0 -k RTR
h -t 0.000000000 -s 0 -d -1 -p XFXVanets -e 48 -c 2 -a 0 -i 0 -k RTR
+ -t 0.000000000 -s 1 -d -1 -p XFXVanets -e 48 -c 2 -a 0 -i 0 -k RTR 
- -t 0.000000000 -s 1 -d -1 -p XFXVanets -e 48 -c 2 -a 0 -i 0 -k RTR
h -t 0.000000000 -s 1 -d -1 -p XFXVanets -e 48 -c 2 -a 0 -i 0 -k RTR
r -t 0.000988000 -s 0 -d -1 -p XFXVanets -e 48 -c 2 -a 0 -i 0 -k RTR
+ -t 0.000988000 -s 0 -d -1 -p XFXVanets -e 48 -c 2 -a 0 -i 0 -k RTR 
- -t 0.000988000 -s 0 -d -1 -p XFXVanets -e 48 -c 2 -a 0 -i 0 -k RTR
h -t 0.000988000 -s 0 -d -1 -p XFXVanets -e 48 -c 2 -a 0 -i 0 -k RTR
r -t 0.002306000 -s 1 -d -1 -p XFXVanets -e 48 -c 2 -a 0 -i 0 -k RTR
n -t 1.000000 -s 1 -x 5.000000 -y 5.000000 -U 0.000000 -V 0.000000 -T 0.000000
+ -t 1.000000000 -s 0 -d -1 -p cbr -e 1000 -c 2 -a 0 -i 1 -k AGT 
- -t 1.000000000 -s 0 -d -1 -p cbr -e 1000 -c 2 -a 0 -i 1 -k AGT
h -t 1.000000000 -s 0 -d -1 -p cbr -e 1000 -c 2 -a 0 -i 1 -k AGT
+ -t 1.000000000 -s 0 -d -1 -p XFXVanets -e 48 -c 2 -a 0 -i 0 -k RTR 
- -t 1.000000000 -s 0 -d -1 -p XFXVanets -e 48 -c 2 -a 0 -i 0 -k RTR
h -t 1.000000000 -s 0 -d -1 -p XFXVanets -e 48 -c 2 -a 0 -i 0 -k RTR
+ -t 1.000000000 -s 1 -d -1 -p XFXVanets -e 48 -c 2 -a 0 -i 0 -k RTR 
- -t 1.000000000 -s 1 -d -1 -p XFXVanets -e 48 -c 2 -a 0 -i 0 -k RTR
h -t 1.000000000 -s 1 -d -1 -p XFXVanets -e 48 -c 2 -a 0 -i 0 -k RTR
r -t 1.001188000 -s 1 -d -1 -p XFXVanets -e 48 -c 2 -a 0 -i 0 -k RTR
r -t 1.002206000 -s 0 -d -1 -p XFXVanets -e 48 -c 2 -a 0 -i 0 -k RTR
+ -t 1.002206000 -s 0 -d -1 -p XFXVanets -e 48 -c 2 -a 0 -i 1 -k RTR 
- -t 1.002206000 -s 0 -d -1 -p XFXVanets -e 48 -c 2 -a 0 -i 1 -k RTR
h -t 1.002206000 -s 0 -d -1 -p XFXVanets -e 48 -c 2 -a 0 -i 1 -k RTR
+ -t 2.000000000 -s 0 -d -1 -p cbr -e 1000 -c 2 -a 0 -i 2 -k AGT 
- -t 2.000000000 -s 0 -d -1 -p cbr -e 1000 -c 2 -a 0 -i 2 -k AGT
h -t 2.000000000 -s 0 -d -1 -p cbr -e 1000 -c 2 -a 0 -i 2 -k AGT
+ -t 2.000000000 -s 0 -d -1 -p XFXVanets -e 48 -c 2 -a 0 -i 0 -k RTR 
- -t 2.000000000 -s 0 -d -1 -p XFXVanets -e 48 -c 2 -a 0 -i 0 -k RTR
h -t 2.000000000 -s 0 -d -1 -p XFXVanets -e 48 -c 2 -a 0 -i 0 -k RTR
+ -t 2.000000000 -s 1 -d -1 -p XFXVanets -e 48 -c 2 -a 0 -i 0 -k RTR 
- -t 2.000000000 -s 1 -d -1 -p XFXVanets -e 48 -c 2 -a 0 -i 0 -k RTR
h -t 2.000000000 -s 1 -d -1 -p XFXVanets -e 48 -c 2 -a 0 -i 0 -k RTR
r -t 2.001108000 -s 0 -d -1 -p XFXVanets -e 48 -c 2 -a 0 -i 0 -k RTR
+ -t 2.001108000 -s 0 -d -1 -p XFXVanets -e 48 -c 2 -a 0 -i 2 -k RTR 
- -t 2.001108000 -s 0 -d -1 -p XFXVanets -e 48 -c 2 -a 0 -i 2 -k RTR
h -t 2.001108000 -s 0 -d -1 -p XFXVanets -e 48 -c 2 -a 0 -i 2 -k RTR
r -t 2.002386000 -s 1 -d -1 -p XFXVanets -e 48 -c 2 -a 0 -i 0 -k RTR
n -t 3.000000 -s 0 -x 5.000000 -y 5.000000 -U 7.071068 -V 7.071068 -T 2.828427
+ -t 3.000000000 -s 0 -d -1 -p cbr -e 1000 -c 2 -a 0 -i 3 -k AGT 
- -t 3.000000000 -s 0 -d -1 -p cbr -e 1000 -c 2 -a 0 -i 3 -k AGT
h -t 3.000000000 -s 0 -d -1 -p cbr -e 1000 -c 2 -a 0 -i 3 -k AGT
+ -t 3.000000000 -s 0 -d -1 -p XFXVanets -e 48 -c 2 -a 0 -i 0 -k RTR 
- -t 3.000000000 -s 0 -d -1 -p XFXVanets -e 48 -c 2 -a 0 -i 0 -k RTR
h -t 3.000000000 -s 0 -d -1 -p XFXVanets -e 48 -c 2 -a 0 -i 0 -k RTR
+ -t 3.000000000 -s 1 -d -1 -p XFXVanets -e 48 -c 2 -a 0 -i 0 -k RTR 
- -t 3.000000000 -s 1 -d -1 -p XFXVanets -e 48 -c 2 -a 0 -i 0 -k RTR
h -t 3.000000000 -s 1 -d -1 -p XFXVanets -e 48 -c 2 -a 0 -i 0 -k RTR
r -t 3.001288000 -s 0 -d -1 -p XFXVanets -e 48 -c 2 -a 0 -i 0 -k RTR
+ -t 3.001288000 -s 0 -d -1 -p XFXVanets -e 48 -c 2 -a 0 -i 3 -k RTR 
- -t 3.001288000 -s 0 -d -1 -p XFXVanets -e 48 -c 2 -a 0 -i 3 -k RTR
h -t 3.001288000 -s 0 -d -1 -p XFXVanets -e 48 -c 2 -a 0 -i 3 -k RTR
r -t 3.002326000 -s 1 -d -1 -p XFXVanets -e 48 -c 2 -a 0 -i 0 -k RTR
+ -t 4.000000000 -s 0 -d -1 -p cbr -e 1000 -c 2 -a 0 -i 4 -k AGT 
- -t 4.000000000 -s 0 -d -1 -p cbr -e 1000 -c 2 -a 0 -i 4 -k AGT
h -t 4.000000000 -s 0 -d -1 -p cbr -e 1000 -c 2 -a 0 -i 4 -k AGT
+ -t 4.000000000 -s 0 -d -1 -p XFXVanets -e 48 -c 2 -a 0 -i 0 -k RTR 
- -t 4.000000000 -s 0 -d -1 -p XFXVanets -e 48 -c 2 -a 0 -i 0 -k RTR
h -t 4.000000000 -s 0 -d -1 -p XFXVanets -e 48 -c 2 -a 0 -i 0 -k RTR
+ -t 4.000000000 -s 1 -d -1 -p XFXVanets -e 48 -c 2 -a 0 -i 0 -k RTR 
- -t 4.000000000 -s 1 -d -1 -p XFXVanets -e 48 -c 2 -a 0 -i 0 -k RTR
h -t 4.000000000 -s 1 -d -1 -p XFXVanets -e 48 -c 2 -a 0 -i 0 -k RTR
r -t 4.000968033 -s 1 -d -1 -p XFXVanets -e 48 -c 2 -a 0 -i 0 -k RTR
r -t 4.002086067 -s 0 -d -1 -p XFXVanets -e 48 -c 2 -a 0 -i 0 -k RTR
+ -t 4.002086067 -s 0 -d -1 -p XFXVanets -e 48 -c 2 -a 0 -i 4 -k RTR 
- -t 4.002086067 -s 0 -d -1 -p XFXVanets -e 48 -c 2 -a 0 -i 4 -k RTR
h -t 4.002086067 -s 0 -d -1 -p XFXVanets -e 48 -c 2 -a 0 -i 4 -k RTR
+ -t 5.000000000 -s 0 -d -1 -p cbr -e 1000 -c 2 -a 0 -i 5 -k AGT 
- -t 5.000000000 -s 0 -d -1 -p cbr -e 1000 -c 2 -a 0 -i 5 -k AGT
h -t 5.000000000 -s 0 -d -1 -p cbr -e 1000 -c 2 -a 0 -i 5 -k AGT
+ -t 5.000000000 -s 0 -d -1 -p XFXVanets -e 48 -c 2 -a 0 -i 0 -k RTR 
- -t 5.000000000 -s 0 -d -1 -p XFXVanets -e 48 -c 2 -a 0 -i 0 -k RTR
h -t 5.000000000 -s 0 -d -1 -p XFXVanets -e 48 -c 2 -a 0 -i 0 -k RTR
+ -t 5.000000000 -s 1 -d -1 -p XFXVanets -e 48 -c 2 -a 0 -i 0 -k RTR 
- -t 5.000000000 -s 1 -d -1 -p XFXVanets -e 48 -c 2 -a 0 -i 0 -k RTR
h -t 5.000000000 -s 1 -d -1 -p XFXVanets -e 48 -c 2 -a 0 -i 0 -k RTR
r -t 5.001348067 -s 1 -d -1 -p XFXVanets -e 48 -c 2 -a 0 -i 0 -k RTR
r -t 5.002386133 -s 0 -d -1 -p XFXVanets -e 48 -c 2 -a 0 -i 0 -k RTR
+ -t 5.002386133 -s 0 -d -1 -p XFXVanets -e 48 -c 2 -a 0 -i 5 -k RTR 
- -t 5.002386133 -s 0 -d -1 -p XFXVanets -e 48 -c 2 -a 0 -i 5 -k RTR
h -t 5.002386133 -s 0 -d -1 -p XFXVanets -e 48 -c 2 -a 0 -i 5 -k RTR
+ -t 6.000000000 -s 0 -d -1 -p cbr -e 1000 -c 2 -a 0 -i 6 -k AGT 
- -t 6.000000000 -s 0 -d -1 -p cbr -e 1000 -c 2 -a 0 -i 6 -k AGT
h -t 6.000000000 -s 0 -d -1 -p cbr -e 1000 -c 2 -a 0 -i 6 -k AGT
+ -t 6.000000000 -s 0 -d -1 -p XFXVanets -e 48 -c 2 -a 0 -i 0 -k RTR 
- -t 6.000000000 -s 0 -d -1 -p XFXVanets -e 48 -c 2 -a 0 -i 0 -k RTR
h -t 6.000000000 -s 0 -d -1 -p XFXVanets -e 48 -c 2 -a 0 -i 0 -k RTR
+ -t 6.000000000 -s 1 -d -1 -p XFXVanets -e 48 -c 2 -a 0 -i 0 -k RTR 
- -t 6.000000000 -s 1 -d -1 -p XFXVanets -e 48 -c 2 -a 0 -i 0 -k RTR
h -t 6.000000000 -s 1 -d -1 -p XFXVanets -e 48 -c 2 -a 0 -i 0 -k RTR
r -t 6.001088094 -s 0 -d -1 -p XFXVanets -e 48 -c 2 -a 0 -i 0 -k RTR
+ -t 6.001088094 -s 0 -d -1 -p XFXVanets -e 48 -c 2 -a 0 -i 6 -k RTR 
- -t 6.001088094 -s 0 -d -1 -p XFXVanets -e 48 -c 2 -a 0 -i 6 -k RTR
h -t 6.001088094 -s 0 -d -1 -p XFXVanets -e 48 -c 2 -a 0 -i 6 -k RTR
r -t 6.002206189 -s 1 -d -1 -p XFXVanets -e 48 -c 2 -a 0 -i 0 -k RTR
+ -t 7.000000000 -s 0 -d -1 -p cbr -e 1000 -c 2 -a 0 -i 7 -k AGT 
- -t 7.000000000 -s 0 -d -1 -p cbr -e 1000 -c 2 -a 0 -i 7 -k AGT
h -t 7.000000000 -s 0 -d -1 -p cbr -e 1000 -c 2 -a 0 -i 7 -k AGT
+ -t 7.000000000 -s 0 -d -1 -p XFXVanets -e 48 -c 2 -a 0 -i 0 -k RTR 
- -t 7.000000000 -s 0 -d -1 -p XFXVanets -e 48 -c 2 -a 0 -i 0 -k RTR
h -t 7.000000000 -s 0 -d -1 -p XFXVanets -e 48 -c 2 -a 0 -i 0 -k RTR
+ -t 7.000000000 -s 1 -d -1 -p XFXVanets -e 48 -c 2 -a 0 -i 0 -k RTR 
- -t 7.000000000 -s 1 -d -1 -p XFXVanets -e 48 -c 2 -a 0 -i 0 -k RTR
h -t 7.000000000 -s 1 -d -1 -p XFXVanets -e 48 -c 2 -a 0 -i 0 -k RTR
r -t 7.001048094 -s 1 -d -1 -p XFXVanets -e 48 -c 2 -a 0 -i 0 -k RTR
r -t 7.002366189 -s 0 -d -1 -p XFXVanets -e 48 -c 2 -a 0 -i 0 -k RTR
+ -t 7.002366189 -s 0 -d -1 -p XFXVanets -e 48 -c 2 -a 0 -i 7 -k RTR 
- -t 7.002366189 -s 0 -d -1 -p XFXVanets -e 48 -c 2 -a 0 -i 7 -k RTR
h -t 7.002366189 -s 0 -d -1 -p XFXVanets -e 48 -c 2 -a 0 -i 7 -k RTR
+ -t 8.000000000 -s 0 -d -1 -p cbr -e 1000 -c 2 -a 0 -i 8 -k AGT 
- -t 8.000000000 -s 0 -d -1 -p cbr -e 1000 -c 2 -a 0 -i 8 -k AGT
h -t 8.000000000 -s 0 -d -1 -p cbr -e 1000 -c 2 -a 0 -i 8 -k AGT
+ -t 8.000000000 -s 0 -d -1 -p XFXVanets -e 48 -c 2 -a 0 -i 0 -k RTR 
- -t 8.000000000 -s 0 -d -1 -p XFXVanets -e 48 -c 2 -a 0 -i 0 -k RTR
h -t 8.000000000 -s 0 -d -1 -p XFXVanets -e 48 -c 2 -a 0 -i 0 -k RTR
+ -t 8.000000000 -s 1 -d -1 -p XFXVanets -e 48 -c 2 -a 0 -i 0 -k RTR 
- -t 8.000000000 -s 1 -d -1 -p XFXVanets -e 48 -c 2 -a 0 -i 0 -k RTR
h -t 8.000000000 -s 1 -d -1 -p XFXVanets -e 48 -c 2 -a 0 -i 0 -k RTR
r -t 8.001068094 -s 1 -d -1 -p XFXVanets -e 48 -c 2 -a 0 -i 0 -k RTR
r -t 8.002186189 -s 0 -d -1 -p XFXVanets -e 48 -c 2 -a 0 -i 0 -k RTR
+ -t 8.002186189 -s 0 -d -1 -p XFXVanets -e 48 -c 2 -a 0 -i 8 -k RTR 
- -t 8.002186189 -s 0 -d -1 -p XFXVanets -e 48 -c 2 -a 0 -i 8 -k RTR
h -t 8.002186189 -s 0 -d -1 -p XFXVanets -e 48 -c 2 -a 0 -i 8 -k RTR
+ -t 9.000000000 -s 0 -d -1 -p cbr -e 1000 -c 2 -a 0 -i 9 -k AGT 
- -t 9.000000000 -s 0 -d -1 -p cbr -e 1000 -c 2 -a 0 -i 9 -k AGT
h -t 9.000000000 -s 0 -d -1 -p cbr -e 1000 -c 2 -a 0 -i 9 -k AGT
+ -t 9.000000000 -s 0 -d -1 -p XFXVanets -e 48 -c 2 -a 0 -i 0 -k RTR 
- -t 9.000000000 -s 0 -d -1 -p XFXVanets -e 48 -c 2 -a 0 -i 0 -k RTR
h -t 9.000000000 -s 0 -d -1 -p XFXVanets -e 48 -c 2 -a 0 -i 0 -k RTR
+ -t 9.000000000 -s 1 -d -1 -p XFXVanets -e 48 -c 2 -a 0 -i 0 -k RTR 
- -t 9.000000000 -s 1 -d -1 -p XFXVanets -e 48 -c 2 -a 0 -i 0 -k RTR
h -t 9.000000000 -s 1 -d -1 -p XFXVanets -e 48 -c 2 -a 0 -i 0 -k RTR
r -t 9.001228094 -s 1 -d -1 -p XFXVanets -e 48 -c 2 -a 0 -i 0 -k RTR
r -t 9.002326189 -s 0 -d -1 -p XFXVanets -e 48 -c 2 -a 0 -i 0 -k RTR
+ -t 9.002326189 -s 0 -d -1 -p XFXVanets -e 48 -c 2 -a 0 -i 9 -k RTR 
- -t 9.002326189 -s 0 -d -1 -p XFXVanets -e 48 -c 2 -a 0 -i 9 -k RTR
h -t 9.002326189 -s 0 -d -1 -p XFXVanets -e 48 -c 2 -a 0 -i 9 -k RTR
+ -t 10.000000000 -s 0 -d -1 -p cbr -e 1000 -c 2 -a 0 -i 10 -k AGT 
- -t 10.000000000 -s 0 -d -1 -p cbr -e 1000 -c 2 -a 0 -i 10 -k AGT
h -t 10.000000000 -s 0 -d -1 -p cbr -e 1000 -c 2 -a 0 -i 10 -k AGT
+ -t 10.000000000 -s 0 -d -1 -p XFXVanets -e 48 -c 2 -a 0 -i 0 -k RTR 
- -t 10.000000000 -s 0 -d -1 -p XFXVanets -e 48 -c 2 -a 0 -i 0 -k RTR
h -t 10.000000000 -s 0 -d -1 -p XFXVanets -e 48 -c 2 -a 0 -i 0 -k RTR
+ -t 10.000000000 -s 1 -d -1 -p XFXVanets -e 48 -c 2 -a 0 -i 0 -k RTR 
- -t 10.000000000 -s 1 -d -1 -p XFXVanets -e 48 -c 2 -a 0 -i 0 -k RTR
h -t 10.000000000 -s 1 -d -1 -p XFXVanets -e 48 -c 2 -a 0 -i 0 -k RTR
r -t 10.001028094 -s 0 -d -1 -p XFXVanets -e 48 -c 2 -a 0 -i 0 -k RTR
+ -t 10.001028094 -s 0 -d -1 -p XFXVanets -e 48 -c 2 -a 0 -i 10 -k RTR 
- -t 10.001028094 -s 0 -d -1 -p XFXVanets -e 48 -c 2 -a 0 -i 10 -k RTR
h -t 10.001028094 -s 0 -d -1 -p XFXVanets -e 48 -c 2 -a 0 -i 10 -k RTR
r -t 10.002066189 -s 1 -d -1 -p XFXVanets -e 48 -c 2 -a 0 -i 0 -k RTR
+ -t 11.000000000 -s 0 -d -1 -p cbr -e 1000 -c 2 -a 0 -i 11 -k AGT 
- -t 11.000000000 -s 0 -d -1 -p cbr -e 1000 -c 2 -a 0 -i 11 -k AGT
h -t 11.000000000 -s 0 -d -1 -p cbr -e 1000 -c 2 -a 0 -i 11 -k AGT
+ -t 11.000000000 -s 0 -d -1 -p XFXVanets -e 48 -c 2 -a 0 -i 0 -k RTR 
- -t 11.000000000 -s 0 -d -1 -p XFXVanets -e 48 -c 2 -a 0 -i 0 -k RTR
h -t 11.000000000 -s 0 -d -1 -p XFXVanets -e 48 -c 2 -a 0 -i 0 -k RTR
+ -t 11.000000000 -s 1 -d -1 -p XFXVanets -e 48 -c 2 -a 0 -i 0 -k RTR 
- -t 11.000000000 -s 1 -d -1 -p XFXVanets -e 48 -c 2 -a 0 -i 0 -k RTR
h -t 11.000000000 -s 1 -d -1 -p XFXVanets -e 48 -c 2 -a 0 -i 0 -k RTR
r -t 11.001228094 -s 0 -d -1 -p XFXVanets -e 48 -c 2 -a 0 -i 0 -k RTR
+ -t 11.001228094 -s 0 -d -1 -p XFXVanets -e 48 -c 2 -a 0 -i 11 -k RTR 
- -t 11.001228094 -s 0 -d -1 -p XFXVanets -e 48 -c 2 -a 0 -i 11 -k RTR
h -t 11.001228094 -s 0 -d -1 -p XFXVanets -e 48 -c 2 -a 0 -i 11 -k RTR
r -t 11.002146189 -s 1 -d -1 -p XFXVanets -e 48 -c 2 -a 0 -i 0 -k RTR
+ -t 12.000000000 -s 0 -d -1 -p cbr -e 1000 -c 2 -a 0 -i 12 -k AGT 
- -t 12.000000000 -s 0 -d -1 -p cbr -e 1000 -c 2 -a 0 -i 12 -k AGT
h -t 12.000000000 -s 0 -d -1 -p cbr -e 1000 -c 2 -a 0 -i 12 -k AGT
+ -t 12.000000000 -s 0 -d -1 -p XFXVanets -e 48 -c 2 -a 0 -i 0 -k RTR 
- -t 12.000000000 -s 0 -d -1 -p XFXVanets -e 48 -c 2 -a 0 -i 0 -k RTR
h -t 12.000000000 -s 0 -d -1 -p XFXVanets -e 48 -c 2 -a 0 -i 0 -k RTR
+ -t 12.000000000 -s 1 -d -1 -p XFXVanets -e 48 -c 2 -a 0 -i 0 -k RTR 
- -t 12.000000000 -s 1 -d -1 -p XFXVanets -e 48 -c 2 -a 0 -i 0 -k RTR
h -t 12.000000000 -s 1 -d -1 -p XFXVanets -e 48 -c 2 -a 0 -i 0 -k RTR
r -t 12.001068094 -s 1 -d -1 -p XFXVanets -e 48 -c 2 -a 0 -i 0 -k RTR
r -t 12.002146189 -s 0 -d -1 -p XFXVanets -e 48 -c 2 -a 0 -i 0 -k RTR
+ -t 12.002146189 -s 0 -d -1 -p XFXVanets -e 48 -c 2 -a 0 -i 12 -k RTR 
- -t 12.002146189 -s 0 -d -1 -p XFXVanets -e 48 -c 2 -a 0 -i 12 -k RTR
h -t 12.002146189 -s 0 -d -1 -p XFXVanets -e 48 -c 2 -a 0 -i 12 -k RTR
+ -t 13.000000000 -s 0 -d -1 -p cbr -e 1000 -c 2 -a 0 -i 13 -k AGT 
- -t 13.000000000 -s 0 -d -1 -p cbr -e 1000 -c 2 -a 0 -i 13 -k AGT
h -t 13.000000000 -s 0 -d -1 -p cbr -e 1000 -c 2 -a 0 -i 13 -k AGT
+ -t 13.000000000 -s 0 -d -1 -p XFXVanets -e 48 -c 2 -a 0 -i 0 -k RTR 
- -t 13.000000000 -s 0 -d -1 -p XFXVanets -e 48 -c 2 -a 0 -i 0 -k RTR
h -t 13.000000000 -s 0 -d -1 -p XFXVanets -e 48 -c 2 -a 0 -i 0 -k RTR
+ -t 13.000000000 -s 1 -d -1 -p XFXVanets -e 48 -c 2 -a 0 -i 0 -k RTR 
- -t 13.000000000 -s 1 -d -1 -p XFXVanets -e 48 -c 2 -a 0 -i 0 -k RTR
h -t 13.000000000 -s 1 -d -1 -p XFXVanets -e 48 -c 2 -a 0 -i 0 -k RTR
r -t 13.001028094 -s 0 -d -1 -p XFXVanets -e 48 -c 2 -a 0 -i 0 -k RTR
+ -t 13.001028094 -s 0 -d -1 -p XFXVanets -e 48 -c 2 -a 0 -i 13 -k RTR 
- -t 13.001028094 -s 0 -d -1 -p XFXVanets -e 48 -c 2 -a 0 -i 13 -k RTR
h -t 13.001028094 -s 0 -d -1 -p XFXVanets -e 48 -c 2 -a 0 -i 13 -k RTR
r -t 13.001946189 -s 1 -d -1 -p XFXVanets -e 48 -c 2 -a 0 -i 0 -k RTR
+ -t 14.000000000 -s 0 -d -1 -p cbr -e 1000 -c 2 -a 0 -i 14 -k AGT 
- -t 14.000000000 -s 0 -d -1 -p cbr -e 1000 -c 2 -a 0 -i 14 -k AGT
h -t 14.000000000 -s 0 -d -1 -p cbr -e 1000 -c 2 -a 0 -i 14 -k AGT
+ -t 14.000000000 -s 0 -d -1 -p XFXVanets -e 48 -c 2 -a 0 -i 0 -k RTR 
- -t 14.000000000 -s 0 -d -1 -p XFXVanets -e 48 -c 2 -a 0 -i 0 -k RTR
h -t 14.000000000 -s 0 -d -1 -p XFXVanets -e 48 -c 2 -a 0 -i 0 -k RTR
+ -t 14.000000000 -s 1 -d -1 -p XFXVanets -e 48 -c 2 -a 0 -i 0 -k RTR 
- -t 14.000000000 -s 1 -d -1 -p XFXVanets -e 48 -c 2 -a 0 -i 0 -k RTR
h -t 14.000000000 -s 1 -d -1 -p XFXVanets -e 48 -c 2 -a 0 -i 0 -k RTR
r -t 14.001288094 -s 1 -d -1 -p XFXVanets -e 48 -c 2 -a 0 -i 0 -k RTR
r -t 14.002446189 -s 0 -d -1 -p XFXVanets -e 48 -c 2 -a 0 -i 0 -k RTR
+ -t 14.002446189 -s 0 -d -1 -p XFXVanets -e 48 -c 2 -a 0 -i 14 -k RTR 
- -t 14.002446189 -s 0 -d -1 -p XFXVanets -e 48 -c 2 -a 0 -i 14 -k RTR
h -t 14.002446189 -s 0 -d -1 -p XFXVanets -e 48 -c 2 -a 0 -i 14 -k RTR
+ -t 15.000000000 -s 0 -d -1 -p cbr -e 1000 -c 2 -a 0 -i 15 -k AGT 
- -t 15.000000000 -s 0 -d -1 -p cbr -e 1000 -c 2 -a 0 -i 15 -k AGT
h -t 15.000000000 -s 0 -d -1 -p cbr -e 1000 -c 2 -a 0 -i 15 -k AGT
+ -t 15.000000000 -s 0 -d -1 -p XFXVanets -e 48 -c 2 -a 0 -i 0 -k RTR 
- -t 15.000000000 -s 0 -d -1 -p XFXVanets -e 48 -c 2 -a 0 -i 0 -k RTR
h -t 15.000000000 -s 0 -d -1 -p XFXVanets -e 48 -c 2 -a 0 -i 0 -k RTR
+ -t 15.000000000 -s 1 -d -1 -p XFXVanets -e 48 -c 2 -a 0 -i 0 -k RTR 
- -t 15.000000000 -s 1 -d -1 -p XFXVanets -e 48 -c 2 -a 0 -i 0 -k RTR
h -t 15.000000000 -s 1 -d -1 -p XFXVanets -e 48 -c 2 -a 0 -i 0 -k RTR
r -t 15.001388094 -s 0 -d -1 -p XFXVanets -e 48 -c 2 -a 0 -i 0 -k RTR
+ -t 15.001388094 -s 0 -d -1 -p XFXVanets -e 48 -c 2 -a 0 -i 15 -k RTR 
- -t 15.001388094 -s 0 -d -1 -p XFXVanets -e 48 -c 2 -a 0 -i 15 -k RTR
h -t 15.001388094 -s 0 -d -1 -p XFXVanets -e 48 -c 2 -a 0 -i 15 -k RTR
r -t 15.002446189 -s 1 -d -1 -p XFXVanets -e 48 -c 2 -a 0 -i 0 -k RTR
+ -t 16.000000000 -s 0 -d -1 -p cbr -e 1000 -c 2 -a 0 -i 16 -k AGT 
- -t 16.000000000 -s 0 -d -1 -p cbr -e 1000 -c 2 -a 0 -i 16 -k AGT
h -t 16.000000000 -s 0 -d -1 -p cbr -e 1000 -c 2 -a 0 -i 16 -k AGT
+ -t 16.000000000 -s 0 -d -1 -p XFXVanets -e 48 -c 2 -a 0 -i 0 -k RTR 
- -t 16.000000000 -s 0 -d -1 -p XFXVanets -e 48 -c 2 -a 0 -i 0 -k RTR
h -t 16.000000000 -s 0 -d -1 -p XFXVanets -e 48 -c 2 -a 0 -i 0 -k RTR
+ -t 16.000000000 -s 1 -d -1 -p XFXVanets -e 48 -c 2 -a 0 -i 0 -k RTR 
- -t 16.000000000 -s 1 -d -1 -p XFXVanets -e 48 -c 2 -a 0 -i 0 -k RTR
h -t 16.000000000 -s 1 -d -1 -p XFXVanets -e 48 -c 2 -a 0 -i 0 -k RTR
r -t 16.001248094 -s 1 -d -1 -p XFXVanets -e 48 -c 2 -a 0 -i 0 -k RTR
r -t 16.002186189 -s 0 -d -1 -p XFXVanets -e 48 -c 2 -a 0 -i 0 -k RTR
+ -t 16.002186189 -s 0 -d -1 -p XFXVanets -e 48 -c 2 -a 0 -i 16 -k RTR 
- -t 16.002186189 -s 0 -d -1 -p XFXVanets -e 48 -c 2 -a 0 -i 16 -k RTR
h -t 16.002186189 -s 0 -d -1 -p XFXVanets -e 48 -c 2 -a 0 -i 16 -k RTR
+ -t 17.000000000 -s 0 -d -1 -p cbr -e 1000 -c 2 -a 0 -i 17 -k AGT 
- -t 17.000000000 -s 0 -d -1 -p cbr -e 1000 -c 2 -a 0 -i 17 -k AGT
h -t 17.000000000 -s 0 -d -1 -p cbr -e 1000 -c 2 -a 0 -i 17 -k AGT
+ -t 17.000000000 -s 0 -d -1 -p XFXVanets -e 48 -c 2 -a 0 -i 0 -k RTR 
- -t 17.000000000 -s 0 -d -1 -p XFXVanets -e 48 -c 2 -a 0 -i 0 -k RTR
h -t 17.000000000 -s 0 -d -1 -p XFXVanets -e 48 -c 2 -a 0 -i 0 -k RTR
+ -t 17.000000000 -s 1 -d -1 -p XFXVanets -e 48 -c 2 -a 0 -i 0 -k RTR 
- -t 17.000000000 -s 1 -d -1 -p XFXVanets -e 48 -c 2 -a 0 -i 0 -k RTR
h -t 17.000000000 -s 1 -d -1 -p XFXVanets -e 48 -c 2 -a 0 -i 0 -k RTR
r -t 17.001108094 -s 1 -d -1 -p XFXVanets -e 48 -c 2 -a 0 -i 0 -k RTR
r -t 17.002286189 -s 0 -d -1 -p XFXVanets -e 48 -c 2 -a 0 -i 0 -k RTR
+ -t 17.002286189 -s 0 -d -1 -p XFXVanets -e 48 -c 2 -a 0 -i 17 -k RTR 
- -t 17.002286189 -s 0 -d -1 -p XFXVanets -e 48 -c 2 -a 0 -i 17 -k RTR
h -t 17.002286189 -s 0 -d -1 -p XFXVanets -e 48 -c 2 -a 0 -i 17 -k RTR
+ -t 18.000000000 -s 0 -d -1 -p cbr -e 1000 -c 2 -a 0 -i 18 -k AGT 
- -t 18.000000000 -s 0 -d -1 -p cbr -e 1000 -c 2 -a 0 -i 18 -k AGT
h -t 18.000000000 -s 0 -d -1 -p cbr -e 1000 -c 2 -a 0 -i 18 -k AGT
+ -t 18.000000000 -s 0 -d -1 -p XFXVanets -e 48 -c 2 -a 0 -i 0 -k RTR 
- -t 18.000000000 -s 0 -d -1 -p XFXVanets -e 48 -c 2 -a 0 -i 0 -k RTR
h -t 18.000000000 -s 0 -d -1 -p XFXVanets -e 48 -c 2 -a 0 -i 0 -k RTR
+ -t 18.000000000 -s 1 -d -1 -p XFXVanets -e 48 -c 2 -a 0 -i 0 -k RTR 
- -t 18.000000000 -s 1 -d -1 -p XFXVanets -e 48 -c 2 -a 0 -i 0 -k RTR
h -t 18.000000000 -s 1 -d -1 -p XFXVanets -e 48 -c 2 -a 0 -i 0 -k RTR
r -t 18.000948094 -s 0 -d -1 -p XFXVanets -e 48 -c 2 -a 0 -i 0 -k RTR
+ -t 18.000948094 -s 0 -d -1 -p XFXVanets -e 48 -c 2 -a 0 -i 18 -k RTR 
- -t 18.000948094 -s 0 -d -1 -p XFXVanets -e 48 -c 2 -a 0 -i 18 -k RTR
h -t 18.000948094 -s 0 -d -1 -p XFXVanets -e 48 -c 2 -a 0 -i 18 -k RTR
r -t 18.002066189 -s 1 -d -1 -p XFXVanets -e 48 -c 2 -a 0 -i 0 -k RTR
+ -t 19.000000000 -s 0 -d -1 -p cbr -e 1000 -c 2 -a 0 -i 19 -k AGT 
- -t 19.000000000 -s 0 -d -1 -p cbr -e 1000 -c 2 -a 0 -i 19 -k AGT
h -t 19.000000000 -s 0 -d -1 -p cbr -e 1000 -c 2 -a 0 -i 19 -k AGT
+ -t 19.000000000 -s 0 -d -1 -p XFXVanets -e 48 -c 2 -a 0 -i 0 -k RTR 
- -t 19.000000000 -s 0 -d -1 -p XFXVanets -e 48 -c 2 -a 0 -i 0 -k RTR
h -t 19.000000000 -s 0 -d -1 -p XFXVanets -e 48 -c 2 -a 0 -i 0 -k RTR
+ -t 19.000000000 -s 1 -d -1 -p XFXVanets -e 48 -c 2 -a 0 -i 0 -k RTR 
- -t 19.000000000 -s 1 -d -1 -p XFXVanets -e 48 -c 2 -a 0 -i 0 -k RTR
h -t 19.000000000 -s 1 -d -1 -p XFXVanets -e 48 -c 2 -a 0 -i 0 -k RTR
r -t 19.001368094 -s 1 -d -1 -p XFXVanets -e 48 -c 2 -a 0 -i 0 -k RTR
r -t 19.002346189 -s 0 -d -1 -p XFXVanets -e 48 -c 2 -a 0 -i 0 -k RTR
+ -t 19.002346189 -s 0 -d -1 -p XFXVanets -e 48 -c 2 -a 0 -i 19 -k RTR 
- -t 19.002346189 -s 0 -d -1 -p XFXVanets -e 48 -c 2 -a 0 -i 19 -k RTR
h -t 19.002346189 -s 0 -d -1 -p XFXVanets -e 48 -c 2 -a 0 -i 19 -k RTR
+ -t 20.000000000 -s 0 -d -1 -p cbr -e 1000 -c 2 -a 0 -i 20 -k AGT 
- -t 20.000000000 -s 0 -d -1 -p cbr -e 1000 -c 2 -a 0 -i 20 -k AGT
h -t 20.000000000 -s 0 -d -1 -p cbr -e 1000 -c 2 -a 0 -i 20 -k AGT
+ -t 20.000000000 -s 0 -d -1 -p XFXVanets -e 48 -c 2 -a 0 -i 0 -k RTR 
- -t 20.000000000 -s 0 -d -1 -p XFXVanets -e 48 -c 2 -a 0 -i 0 -k RTR
h -t 20.000000000 -s 0 -d -1 -p XFXVanets -e 48 -c 2 -a 0 -i 0 -k RTR
+ -t 20.000000000 -s 1 -d -1 -p XFXVanets -e 48 -c 2 -a 0 -i 0 -k RTR 
- -t 20.000000000 -s 1 -d -1 -p XFXVanets -e 48 -c 2 -a 0 -i 0 -k RTR
h -t 20.000000000 -s 1 -d -1 -p XFXVanets -e 48 -c 2 -a 0 -i 0 -k RTR
r -t 20.001048094 -s 0 -d -1 -p XFXVanets -e 48 -c 2 -a 0 -i 0 -k RTR
+ -t 20.001048094 -s 0 -d -1 -p XFXVanets -e 48 -c 2 -a 0 -i 20 -k RTR 
- -t 20.001048094 -s 0 -d -1 -p XFXVanets -e 48 -c 2 -a 0 -i 20 -k RTR
h -t 20.001048094 -s 0 -d -1 -p XFXVanets -e 48 -c 2 -a 0 -i 20 -k RTR
r -t 20.002106189 -s 1 -d -1 -p XFXVanets -e 48 -c 2 -a 0 -i 0 -k RTR
+ -t 21.000000000 -s 0 -d -1 -p cbr -e 1000 -c 2 -a 0 -i 21 -k AGT 
- -t 21.000000000 -s 0 -d -1 -p cbr -e 1000 -c 2 -a 0 -i 21 -k AGT
h -t 21.000000000 -s 0 -d -1 -p cbr -e 1000 -c 2 -a 0 -i 21 -k AGT
+ -t 21.000000000 -s 0 -d -1 -p XFXVanets -e 48 -c 2 -a 0 -i 0 -k RTR 
- -t 21.000000000 -s 0 -d -1 -p XFXVanets -e 48 -c 2 -a 0 -i 0 -k RTR
h -t 21.000000000 -s 0 -d -1 -p XFXVanets -e 48 -c 2 -a 0 -i 0 -k RTR
+ -t 21.000000000 -s 1 -d -1 -p XFXVanets -e 48 -c 2 -a 0 -i 0 -k RTR 
- -t 21.000000000 -s 1 -d -1 -p XFXVanets -e 48 -c 2 -a 0 -i 0 -k RTR
h -t 21.000000000 -s 1 -d -1 -p XFXVanets -e 48 -c 2 -a 0 -i 0 -k RTR
r -t 21.001368094 -s 0 -d -1 -p XFXVanets -e 48 -c 2 -a 0 -i 0 -k RTR
+ -t 21.001368094 -s 0 -d -1 -p XFXVanets -e 48 -c 2 -a 0 -i 21 -k RTR 
- -t 21.001368094 -s 0 -d -1 -p XFXVanets -e 48 -c 2 -a 0 -i 21 -k RTR
h -t 21.001368094 -s 0 -d -1 -p XFXVanets -e 48 -c 2 -a 0 -i 21 -k RTR
r -t 21.002446189 -s 1 -d -1 -p XFXVanets -e 48 -c 2 -a 0 -i 0 -k RTR
+ -t 22.000000000 -s 0 -d -1 -p cbr -e 1000 -c 2 -a 0 -i 22 -k AGT 
- -t 22.000000000 -s 0 -d -1 -p cbr -e 1000 -c 2 -a 0 -i 22 -k AGT
h -t 22.000000000 -s 0 -d -1 -p cbr -e 1000 -c 2 -a 0 -i 22 -k AGT
+ -t 22.000000000 -s 0 -d -1 -p XFXVanets -e 48 -c 2 -a 0 -i 0 -k RTR 
- -t 22.000000000 -s 0 -d -1 -p XFXVanets -e 48 -c 2 -a 0 -i 0 -k RTR
h -t 22.000000000 -s 0 -d -1 -p XFXVanets -e 48 -c 2 -a 0 -i 0 -k RTR
+ -t 22.000000000 -s 1 -d -1 -p XFXVanets -e 48 -c 2 -a 0 -i 0 -k RTR 
- -t 22.000000000 -s 1 -d -1 -p XFXVanets -e 48 -c 2 -a 0 -i 0 -k RTR
h -t 22.000000000 -s 1 -d -1 -p XFXVanets -e 48 -c 2 -a 0 -i 0 -k RTR
r -t 22.000968094 -s 0 -d -1 -p XFXVanets -e 48 -c 2 -a 0 -i 0 -k RTR
+ -t 22.000968094 -s 0 -d -1 -p XFXVanets -e 48 -c 2 -a 0 -i 22 -k RTR 
- -t 22.000968094 -s 0 -d -1 -p XFXVanets -e 48 -c 2 -a 0 -i 22 -k RTR
h -t 22.000968094 -s 0 -d -1 -p XFXVanets -e 48 -c 2 -a 0 -i 22 -k RTR
r -t 22.002106189 -s 1 -d -1 -p XFXVanets -e 48 -c 2 -a 0 -i 0 -k RTR
+ -t 23.000000000 -s 0 -d -1 -p cbr -e 1000 -c 2 -a 0 -i 23 -k AGT 
- -t 23.000000000 -s 0 -d -1 -p cbr -e 1000 -c 2 -a 0 -i 23 -k AGT
h -t 23.000000000 -s 0 -d -1 -p cbr -e 1000 -c 2 -a 0 -i 23 -k AGT
+ -t 23.000000000 -s 0 -d -1 -p XFXVanets -e 48 -c 2 -a 0 -i 0 -k RTR 
- -t 23.000000000 -s 0 -d -1 -p XFXVanets -e 48 -c 2 -a 0 -i 0 -k RTR
h -t 23.000000000 -s 0 -d -1 -p XFXVanets -e 48 -c 2 -a 0 -i 0 -k RTR
+ -t 23.000000000 -s 1 -d -1 -p XFXVanets -e 48 -c 2 -a 0 -i 0 -k RTR 
- -t 23.000000000 -s 1 -d -1 -p XFXVanets -e 48 -c 2 -a 0 -i 0 -k RTR
h -t 23.000000000 -s 1 -d -1 -p XFXVanets -e 48 -c 2 -a 0 -i 0 -k RTR
r -t 23.001328094 -s 1 -d -1 -p XFXVanets -e 48 -c 2 -a 0 -i 0 -k RTR
r -t 23.002326189 -s 0 -d -1 -p XFXVanets -e 48 -c 2 -a 0 -i 0 -k RTR
+ -t 23.002326189 -s 0 -d -1 -p XFXVanets -e 48 -c 2 -a 0 -i 23 -k RTR 
- -t 23.002326189 -s 0 -d -1 -p XFXVanets -e 48 -c 2 -a 0 -i 23 -k RTR
h -t 23.002326189 -s 0 -d -1 -p XFXVanets -e 48 -c 2 -a 0 -i 23 -k RTR
+ -t 24.000000000 -s 0 -d -1 -p cbr -e 1000 -c 2 -a 0 -i 24 -k AGT 
- -t 24.000000000 -s 0 -d -1 -p cbr -e 1000 -c 2 -a 0 -i 24 -k AGT
h -t 24.000000000 -s 0 -d -1 -p cbr -e 1000 -c 2 -a 0 -i 24 -k AGT
+ -t 24.000000000 -s 0 -d -1 -p XFXVanets -e 48 -c 2 -a 0 -i 0 -k RTR 
- -t 24.000000000 -s 0 -d -1 -p XFXVanets -e 48 -c 2 -a 0 -i 0 -k RTR
h -t 24.000000000 -s 0 -d -1 -p XFXVanets -e 48 -c 2 -a 0 -i 0 -k RTR
+ -t 24.000000000 -s 1 -d -1 -p XFXVanets -e 48 -c 2 -a 0 -i 0 -k RTR 
- -t 24.000000000 -s 1 -d -1 -p XFXVanets -e 48 -c 2 -a 0 -i 0 -k RTR
h -t 24.000000000 -s 1 -d -1 -p XFXVanets -e 48 -c 2 -a 0 -i 0 -k RTR
r -t 24.001088094 -s 0 -d -1 -p XFXVanets -e 48 -c 2 -a 0 -i 0 -k RTR
+ -t 24.001088094 -s 0 -d -1 -p XFXVanets -e 48 -c 2 -a 0 -i 24 -k RTR 
- -t 24.001088094 -s 0 -d -1 -p XFXVanets -e 48 -c 2 -a 0 -i 24 -k RTR
h -t 24.001088094 -s 0 -d -1 -p XFXVanets -e 48 -c 2 -a 0 -i 24 -k RTR
r -t 24.002026189 -s 1 -d -1 -p XFXVanets -e 48 -c 2 -a 0 -i 0 -k RTR
+ -t 25.000000000 -s 0 -d -1 -p cbr -e 1000 -c 2 -a 0 -i 25 -k AGT 
- -t 25.000000000 -s 0 -d -1 -p cbr -e 1000 -c 2 -a 0 -i 25 -k AGT
h -t 25.000000000 -s 0 -d -1 -p cbr -e 1000 -c 2 -a 0 -i 25 -k AGT
+ -t 25.000000000 -s 0 -d -1 -p XFXVanets -e 48 -c 2 -a 0 -i 0 -k RTR 
- -t 25.000000000 -s 0 -d -1 -p XFXVanets -e 48 -c 2 -a 0 -i 0 -k RTR
h -t 25.000000000 -s 0 -d -1 -p XFXVanets -e 48 -c 2 -a 0 -i 0 -k RTR
+ -t 25.000000000 -s 1 -d -1 -p XFXVanets -e 48 -c 2 -a 0 -i 0 -k RTR 
- -t 25.000000000 -s 1 -d -1 -p XFXVanets -e 48 -c 2 -a 0 -i 0 -k RTR
h -t 25.000000000 -s 1 -d -1 -p XFXVanets -e 48 -c 2 -a 0 -i 0 -k RTR
r -t 25.000948094 -s 1 -d -1 -p XFXVanets -e 48 -c 2 -a 0 -i 0 -k RTR
r -t 25.002386189 -s 0 -d -1 -p XFXVanets -e 48 -c 2 -a 0 -i 0 -k RTR
+ -t 25.002386189 -s 0 -d -1 -p XFXVanets -e 48 -c 2 -a 0 -i 25 -k RTR 
- -t 25.002386189 -s 0 -d -1 -p XFXVanets -e 48 -c 2 -a 0 -i 25 -k RTR
h -t 25.002386189 -s 0 -d -1 -p XFXVanets -e 48 -c 2 -a 0 -i 25 -k RTR
+ -t 26.000000000 -s 0 -d -1 -p cbr -e 1000 -c 2 -a 0 -i 26 -k AGT 
- -t 26.000000000 -s 0 -d -1 -p cbr -e 1000 -c 2 -a 0 -i 26 -k AGT
h -t 26.000000000 -s 0 -d -1 -p cbr -e 1000 -c 2 -a 0 -i 26 -k AGT
+ -t 26.000000000 -s 0 -d -1 -p XFXVanets -e 48 -c 2 -a 0 -i 0 -k RTR 
- -t 26.000000000 -s 0 -d -1 -p XFXVanets -e 48 -c 2 -a 0 -i 0 -k RTR
h -t 26.000000000 -s 0 -d -1 -p XFXVanets -e 48 -c 2 -a 0 -i 0 -k RTR
+ -t 26.000000000 -s 1 -d -1 -p XFXVanets -e 48 -c 2 -a 0 -i 0 -k RTR 
- -t 26.000000000 -s 1 -d -1 -p XFXVanets -e 48 -c 2 -a 0 -i 0 -k RTR
h -t 26.000000000 -s 1 -d -1 -p XFXVanets -e 48 -c 2 -a 0 -i 0 -k RTR
r -t 26.001168094 -s 1 -d -1 -p XFXVanets -e 48 -c 2 -a 0 -i 0 -k RTR
r -t 26.002366189 -s 0 -d -1 -p XFXVanets -e 48 -c 2 -a 0 -i 0 -k RTR
+ -t 26.002366189 -s 0 -d -1 -p XFXVanets -e 48 -c 2 -a 0 -i 26 -k RTR 
- -t 26.002366189 -s 0 -d -1 -p XFXVanets -e 48 -c 2 -a 0 -i 26 -k RTR
h -t 26.002366189 -s 0 -d -1 -p XFXVanets -e 48 -c 2 -a 0 -i 26 -k RTR
+ -t 27.000000000 -s 0 -d -1 -p cbr -e 1000 -c 2 -a 0 -i 27 -k AGT 
- -t 27.000000000 -s 0 -d -1 -p cbr -e 1000 -c 2 -a 0 -i 27 -k AGT
h -t 27.000000000 -s 0 -d -1 -p cbr -e 1000 -c 2 -a 0 -i 27 -k AGT
+ -t 27.000000000 -s 0 -d -1 -p XFXVanets -e 48 -c 2 -a 0 -i 0 -k RTR 
- -t 27.000000000 -s 0 -d -1 -p XFXVanets -e 48 -c 2 -a 0 -i 0 -k RTR
h -t 27.000000000 -s 0 -d -1 -p XFXVanets -e 48 -c 2 -a 0 -i 0 -k RTR
+ -t 27.000000000 -s 1 -d -1 -p XFXVanets -e 48 -c 2 -a 0 -i 0 -k RTR 
- -t 27.000000000 -s 1 -d -1 -p XFXVanets -e 48 -c 2 -a 0 -i 0 -k RTR
h -t 27.000000000 -s 1 -d -1 -p XFXVanets -e 48 -c 2 -a 0 -i 0 -k RTR
r -t 27.000948094 -s 0 -d -1 -p XFXVanets -e 48 -c 2 -a 0 -i 0 -k RTR
+ -t 27.000948094 -s 0 -d -1 -p XFXVanets -e 48 -c 2 -a 0 -i 27 -k RTR 
- -t 27.000948094 -s 0 -d -1 -p XFXVanets -e 48 -c 2 -a 0 -i 27 -k RTR
h -t 27.000948094 -s 0 -d -1 -p XFXVanets -e 48 -c 2 -a 0 -i 27 -k RTR
r -t 27.002026189 -s 1 -d -1 -p XFXVanets -e 48 -c 2 -a 0 -i 0 -k RTR
+ -t 28.000000000 -s 0 -d -1 -p cbr -e 1000 -c 2 -a 0 -i 28 -k AGT 
- -t 28.000000000 -s 0 -d -1 -p cbr -e 1000 -c 2 -a 0 -i 28 -k AGT
h -t 28.000000000 -s 0 -d -1 -p cbr -e 1000 -c 2 -a 0 -i 28 -k AGT
+ -t 28.000000000 -s 0 -d -1 -p XFXVanets -e 48 -c 2 -a 0 -i 0 -k RTR 
- -t 28.000000000 -s 0 -d -1 -p XFXVanets -e 48 -c 2 -a 0 -i 0 -k RTR
h -t 28.000000000 -s 0 -d -1 -p XFXVanets -e 48 -c 2 -a 0 -i 0 -k RTR
+ -t 28.000000000 -s 1 -d -1 -p XFXVanets -e 48 -c 2 -a 0 -i 0 -k RTR 
- -t 28.000000000 -s 1 -d -1 -p XFXVanets -e 48 -c 2 -a 0 -i 0 -k RTR
h -t 28.000000000 -s 1 -d -1 -p XFXVanets -e 48 -c 2 -a 0 -i 0 -k RTR
r -t 28.000948094 -s 1 -d -1 -p XFXVanets -e 48 -c 2 -a 0 -i 0 -k RTR
r -t 28.001966189 -s 0 -d -1 -p XFXVanets -e 48 -c 2 -a 0 -i 0 -k RTR
+ -t 28.001966189 -s 0 -d -1 -p XFXVanets -e 48 -c 2 -a 0 -i 28 -k RTR 
- -t 28.001966189 -s 0 -d -1 -p XFXVanets -e 48 -c 2 -a 0 -i 28 -k RTR
h -t 28.001966189 -s 0 -d -1 -p XFXVanets -e 48 -c 2 -a 0 -i 28 -k RTR
+ -t 29.000000000 -s 0 -d -1 -p cbr -e 1000 -c 2 -a 0 -i 29 -k AGT 
- -t 29.000000000 -s 0 -d -1 -p cbr -e 1000 -c 2 -a 0 -i 29 -k AGT
h -t 29.000000000 -s 0 -d -1 -p cbr -e 1000 -c 2 -a 0 -i 29 -k AGT
+ -t 29.000000000 -s 0 -d -1 -p XFXVanets -e 48 -c 2 -a 0 -i 0 -k RTR 
- -t 29.000000000 -s 0 -d -1 -p XFXVanets -e 48 -c 2 -a 0 -i 0 -k RTR
h -t 29.000000000 -s 0 -d -1 -p XFXVanets -e 48 -c 2 -a 0 -i 0 -k RTR
+ -t 29.000000000 -s 1 -d -1 -p XFXVanets -e 48 -c 2 -a 0 -i 0 -k RTR 
- -t 29.000000000 -s 1 -d -1 -p XFXVanets -e 48 -c 2 -a 0 -i 0 -k RTR
h -t 29.000000000 -s 1 -d -1 -p XFXVanets -e 48 -c 2 -a 0 -i 0 -k RTR
r -t 29.001088094 -s 0 -d -1 -p XFXVanets -e 48 -c 2 -a 0 -i 0 -k RTR
+ -t 29.001088094 -s 0 -d -1 -p XFXVanets -e 48 -c 2 -a 0 -i 29 -k RTR 
- -t 29.001088094 -s 0 -d -1 -p XFXVanets -e 48 -c 2 -a 0 -i 29 -k RTR
h -t 29.001088094 -s 0 -d -1 -p XFXVanets -e 48 -c 2 -a 0 -i 29 -k RTR
r -t 29.002446189 -s 1 -d -1 -p XFXVanets -e 48 -c 2 -a 0 -i 0 -k RTR
+ -t 30.000000000 -s 0 -d -1 -p cbr -e 1000 -c 2 -a 0 -i 30 -k AGT 
- -t 30.000000000 -s 0 -d -1 -p cbr -e 1000 -c 2 -a 0 -i 30 -k AGT
h -t 30.000000000 -s 0 -d -1 -p cbr -e 1000 -c 2 -a 0 -i 30 -k AGT
+ -t 30.000000000 -s 0 -d -1 -p XFXVanets -e 48 -c 2 -a 0 -i 0 -k RTR 
- -t 30.000000000 -s 0 -d -1 -p XFXVanets -e 48 -c 2 -a 0 -i 0 -k RTR
h -t 30.000000000 -s 0 -d -1 -p XFXVanets -e 48 -c 2 -a 0 -i 0 -k RTR
+ -t 30.000000000 -s 1 -d -1 -p XFXVanets -e 48 -c 2 -a 0 -i 0 -k RTR 
- -t 30.000000000 -s 1 -d -1 -p XFXVanets -e 48 -c 2 -a 0 -i 0 -k RTR